 TITLE = "Profiles along polylines"
 VARIABLES = "DIST" "PRESSURE1" 
 ZONE T="TIME=0.000000000000e+00"
0.000000000000e+00 0.000000000000e+00 
1.000000000001e+00 0.000000000000e+00 
1.999999999998e+00 0.000000000000e+00 
2.999999999996e+00 0.000000000000e+00 
3.999999999993e+00 0.000000000000e+00 
4.999999999990e+00 0.000000000000e+00 
5.999999999987e+00 0.000000000000e+00 
6.999999999984e+00 0.000000000000e+00 
7.999999999981e+00 0.000000000000e+00 
8.999999999979e+00 0.000000000000e+00 
9.999999999976e+00 0.000000000000e+00 
1.099999999997e+01 0.000000000000e+00 
1.199999999997e+01 0.000000000000e+00 
1.299999999997e+01 0.000000000000e+00 
1.399999999996e+01 0.000000000000e+00 
1.499999999996e+01 0.000000000000e+00 
1.599999999996e+01 0.000000000000e+00 
1.699999999996e+01 0.000000000000e+00 
1.799999999995e+01 0.000000000000e+00 
1.899999999995e+01 0.000000000000e+00 
1.999999999995e+01 0.000000000000e+00 
2.099999999994e+01 0.000000000000e+00 
2.199999999994e+01 0.000000000000e+00 
2.299999999994e+01 0.000000000000e+00 
2.399999999994e+01 0.000000000000e+00 
2.499999999993e+01 0.000000000000e+00 
2.599999999993e+01 0.000000000000e+00 
2.699999999993e+01 0.000000000000e+00 
2.799999999992e+01 0.000000000000e+00 
2.899999999992e+01 0.000000000000e+00 
2.999999999992e+01 0.000000000000e+00 
3.099999999992e+01 0.000000000000e+00 
3.199999999991e+01 0.000000000000e+00 
3.299999999992e+01 0.000000000000e+00 
3.399999999992e+01 0.000000000000e+00 
3.499999999992e+01 0.000000000000e+00 
3.599999999992e+01 0.000000000000e+00 
3.699999999993e+01 0.000000000000e+00 
3.799999999993e+01 0.000000000000e+00 
3.899999999993e+01 0.000000000000e+00 
3.999999999993e+01 0.000000000000e+00 
4.099999999994e+01 0.000000000000e+00 
4.199999999994e+01 0.000000000000e+00 
4.299999999994e+01 0.000000000000e+00 
4.399999999995e+01 0.000000000000e+00 
4.499999999995e+01 0.000000000000e+00 
4.599999999995e+01 0.000000000000e+00 
4.699999999995e+01 0.000000000000e+00 
4.799999999996e+01 0.000000000000e+00 
4.899999999996e+01 0.000000000000e+00 
4.999999999996e+01 0.000000000000e+00 
5.099999999996e+01 0.000000000000e+00 
5.199999999997e+01 0.000000000000e+00 
5.299999999997e+01 0.000000000000e+00 
5.399999999997e+01 0.000000000000e+00 
5.499999999998e+01 0.000000000000e+00 
5.599999999998e+01 0.000000000000e+00 
5.699999999998e+01 0.000000000000e+00 
5.799999999998e+01 0.000000000000e+00 
5.899999999999e+01 0.000000000000e+00 
5.999999999999e+01 0.000000000000e+00 
6.099999999999e+01 0.000000000000e+00 
6.199999999999e+01 0.000000000000e+00 
6.300000000000e+01 0.000000000000e+00 
6.400000000000e+01 0.000000000000e+00 
 TITLE = "Profiles along polylines"
 VARIABLES = "DIST" "PRESSURE1" 
 ZONE T="TIME=1.000000000000e-06"
0.000000000000e+00 4.890125753228e+06 
1.000000000001e+00 4.890115586329e+06 
1.999999999998e+00 4.890108413603e+06 
2.999999999996e+00 4.890118877496e+06 
3.999999999993e+00 4.890132928358e+06 
4.999999999990e+00 4.890146279144e+06 
5.999999999987e+00 4.890160680058e+06 
6.999999999984e+00 4.890167135038e+06 
7.999999999981e+00 4.890178141542e+06 
8.999999999979e+00 4.890184231190e+06 
9.999999999976e+00 4.890186088765e+06 
1.099999999997e+01 4.890185071473e+06 
1.199999999997e+01 4.890177336156e+06 
1.299999999997e+01 4.890182298663e+06 
1.399999999996e+01 4.890198183868e+06 
1.499999999996e+01 4.890205323401e+06 
1.599999999996e+01 4.890194198507e+06 
1.699999999996e+01 4.890172053668e+06 
1.799999999995e+01 4.890164276147e+06 
1.899999999995e+01 4.890176333818e+06 
1.999999999995e+01 4.890179252002e+06 
2.099999999994e+01 4.890178262626e+06 
2.199999999994e+01 4.890165261433e+06 
2.299999999994e+01 4.890153995072e+06 
2.399999999994e+01 4.890151670564e+06 
2.499999999993e+01 4.890130464268e+06 
2.599999999993e+01 4.890115627196e+06 
2.699999999993e+01 4.890120754149e+06 
2.799999999992e+01 4.890119595216e+06 
2.899999999992e+01 4.890104788879e+06 
2.999999999992e+01 4.890093317871e+06 
3.099999999992e+01 4.890099946379e+06 
3.199999999991e+01 4.890109439431e+06 
3.299999999992e+01 4.890120216524e+06 
3.399999999992e+01 4.890141240373e+06 
3.499999999992e+01 4.890160779253e+06 
3.599999999992e+01 4.890163709143e+06 
3.699999999993e+01 4.890153212218e+06 
3.799999999993e+01 4.890142946774e+06 
3.899999999993e+01 4.890136952945e+06 
3.999999999993e+01 4.890124402038e+06 
4.099999999994e+01 4.890113578027e+06 
4.199999999994e+01 4.890099191999e+06 
4.299999999994e+01 4.890081927632e+06 
4.399999999995e+01 4.890082006473e+06 
4.499999999995e+01 4.890089558846e+06 
4.599999999995e+01 4.890101813086e+06 
4.699999999995e+01 4.890109215213e+06 
4.799999999996e+01 4.890106450727e+06 
4.899999999996e+01 4.890101862073e+06 
4.999999999996e+01 4.890103154285e+06 
5.099999999996e+01 4.890107288066e+06 
5.199999999997e+01 4.890112381752e+06 
5.299999999997e+01 4.890127659156e+06 
5.399999999997e+01 4.890133094788e+06 
5.499999999998e+01 4.890127797864e+06 
5.599999999998e+01 4.890107944794e+06 
5.699999999998e+01 4.890078061933e+06 
5.799999999998e+01 4.890069220935e+06 
5.899999999999e+01 4.890067894029e+06 
5.999999999999e+01 4.890070540478e+06 
6.099999999999e+01 4.890068557424e+06 
6.199999999999e+01 4.890071595394e+06 
6.300000000000e+01 4.890080730458e+06 
6.400000000000e+01 4.890083487119e+06 
 ZONE T="TIME=3.000000010000e+02"
0.000000000000e+00 4.890125753228e+06 
1.000000000001e+00 4.890115586329e+06 
1.999999999998e+00 4.890108413603e+06 
2.999999999996e+00 4.890118877496e+06 
3.999999999993e+00 4.890132928358e+06 
4.999999999990e+00 4.890146279145e+06 
5.999999999987e+00 4.890160680058e+06 
6.999999999984e+00 4.890167135038e+06 
7.999999999981e+00 4.890178141542e+06 
8.999999999979e+00 4.890184231190e+06 
9.999999999976e+00 4.890186088765e+06 
1.099999999997e+01 4.890185071473e+06 
1.199999999997e+01 4.890177336157e+06 
1.299999999997e+01 4.890182298663e+06 
1.399999999996e+01 4.890198183868e+06 
1.499999999996e+01 4.890205323401e+06 
1.599999999996e+01 4.890194198507e+06 
1.699999999996e+01 4.890172053668e+06 
1.799999999995e+01 4.890164276147e+06 
1.899999999995e+01 4.890176333818e+06 
1.999999999995e+01 4.890179252002e+06 
2.099999999994e+01 4.890178262626e+06 
2.199999999994e+01 4.890165261433e+06 
2.299999999994e+01 4.890153995072e+06 
2.399999999994e+01 4.890151670564e+06 
2.499999999993e+01 4.890130464268e+06 
2.599999999993e+01 4.890115627196e+06 
2.699999999993e+01 4.890120754149e+06 
2.799999999992e+01 4.890119595216e+06 
2.899999999992e+01 4.890104788879e+06 
2.999999999992e+01 4.890093317871e+06 
3.099999999992e+01 4.890099946379e+06 
3.199999999991e+01 4.890109439431e+06 
3.299999999992e+01 4.890120216524e+06 
3.399999999992e+01 4.890141240373e+06 
3.499999999992e+01 4.890160779253e+06 
3.599999999992e+01 4.890163709143e+06 
3.699999999993e+01 4.890153212218e+06 
3.799999999993e+01 4.890142946774e+06 
3.899999999993e+01 4.890136952945e+06 
3.999999999993e+01 4.890124402038e+06 
4.099999999994e+01 4.890113578027e+06 
4.199999999994e+01 4.890099191999e+06 
4.299999999994e+01 4.890081927632e+06 
4.399999999995e+01 4.890082006473e+06 
4.499999999995e+01 4.890089558846e+06 
4.599999999995e+01 4.890101813086e+06 
4.699999999995e+01 4.890109215213e+06 
4.799999999996e+01 4.890106450727e+06 
4.899999999996e+01 4.890101862073e+06 
4.999999999996e+01 4.890103154285e+06 
5.099999999996e+01 4.890107288066e+06 
5.199999999997e+01 4.890112381752e+06 
5.299999999997e+01 4.890127659156e+06 
5.399999999997e+01 4.890133094788e+06 
5.499999999998e+01 4.890127797864e+06 
5.599999999998e+01 4.890107944794e+06 
5.699999999998e+01 4.890078061933e+06 
5.799999999998e+01 4.890069220935e+06 
5.899999999999e+01 4.890067894029e+06 
5.999999999999e+01 4.890070540478e+06 
6.099999999999e+01 4.890068557424e+06 
6.199999999999e+01 4.890071595394e+06 
6.300000000000e+01 4.890080730458e+06 
6.400000000000e+01 4.890083487119e+06 
 ZONE T="TIME=6.000000010000e+02"
0.000000000000e+00 4.890125753228e+06 
1.000000000001e+00 4.890115586329e+06 
1.999999999998e+00 4.890108413603e+06 
2.999999999996e+00 4.890118877496e+06 
3.999999999993e+00 4.890132928358e+06 
4.999999999990e+00 4.890146279144e+06 
5.999999999987e+00 4.890160680058e+06 
6.999999999984e+00 4.890167135038e+06 
7.999999999981e+00 4.890178141542e+06 
8.999999999979e+00 4.890184231190e+06 
9.999999999976e+00 4.890186088765e+06 
1.099999999997e+01 4.890185071473e+06 
1.199999999997e+01 4.890177336156e+06 
1.299999999997e+01 4.890182298663e+06 
1.399999999996e+01 4.890198183868e+06 
1.499999999996e+01 4.890205323401e+06 
1.599999999996e+01 4.890194198507e+06 
1.699999999996e+01 4.890172053668e+06 
1.799999999995e+01 4.890164276147e+06 
1.899999999995e+01 4.890176333818e+06 
1.999999999995e+01 4.890179252002e+06 
2.099999999994e+01 4.890178262626e+06 
2.199999999994e+01 4.890165261433e+06 
2.299999999994e+01 4.890153995072e+06 
2.399999999994e+01 4.890151670564e+06 
2.499999999993e+01 4.890130464268e+06 
2.599999999993e+01 4.890115627196e+06 
2.699999999993e+01 4.890120754149e+06 
2.799999999992e+01 4.890119595216e+06 
2.899999999992e+01 4.890104788879e+06 
2.999999999992e+01 4.890093317871e+06 
3.099999999992e+01 4.890099946379e+06 
3.199999999991e+01 4.890109439431e+06 
3.299999999992e+01 4.890120216524e+06 
3.399999999992e+01 4.890141240373e+06 
3.499999999992e+01 4.890160779253e+06 
3.599999999992e+01 4.890163709143e+06 
3.699999999993e+01 4.890153212218e+06 
3.799999999993e+01 4.890142946774e+06 
3.899999999993e+01 4.890136952945e+06 
3.999999999993e+01 4.890124402038e+06 
4.099999999994e+01 4.890113578027e+06 
4.199999999994e+01 4.890099191999e+06 
4.299999999994e+01 4.890081927632e+06 
4.399999999995e+01 4.890082006473e+06 
4.499999999995e+01 4.890089558846e+06 
4.599999999995e+01 4.890101813086e+06 
4.699999999995e+01 4.890109215213e+06 
4.799999999996e+01 4.890106450727e+06 
4.899999999996e+01 4.890101862073e+06 
4.999999999996e+01 4.890103154285e+06 
5.099999999996e+01 4.890107288066e+06 
5.199999999997e+01 4.890112381752e+06 
5.299999999997e+01 4.890127659156e+06 
5.399999999997e+01 4.890133094788e+06 
5.499999999998e+01 4.890127797864e+06 
5.599999999998e+01 4.890107944794e+06 
5.699999999998e+01 4.890078061933e+06 
5.799999999998e+01 4.890069220935e+06 
5.899999999999e+01 4.890067894029e+06 
5.999999999999e+01 4.890070540478e+06 
6.099999999999e+01 4.890068557424e+06 
6.199999999999e+01 4.890071595394e+06 
6.300000000000e+01 4.890080730458e+06 
6.400000000000e+01 4.890083487119e+06 
 ZONE T="TIME=9.000000010000e+02"
0.000000000000e+00 4.890125753228e+06 
1.000000000001e+00 4.890115586329e+06 
1.999999999998e+00 4.890108413603e+06 
2.999999999996e+00 4.890118877496e+06 
3.999999999993e+00 4.890132928358e+06 
4.999999999990e+00 4.890146279144e+06 
5.999999999987e+00 4.890160680058e+06 
6.999999999984e+00 4.890167135038e+06 
7.999999999981e+00 4.890178141542e+06 
8.999999999979e+00 4.890184231190e+06 
9.999999999976e+00 4.890186088765e+06 
1.099999999997e+01 4.890185071473e+06 
1.199999999997e+01 4.890177336156e+06 
1.299999999997e+01 4.890182298663e+06 
1.399999999996e+01 4.890198183868e+06 
1.499999999996e+01 4.890205323401e+06 
1.599999999996e+01 4.890194198507e+06 
1.699999999996e+01 4.890172053668e+06 
1.799999999995e+01 4.890164276147e+06 
1.899999999995e+01 4.890176333818e+06 
1.999999999995e+01 4.890179252002e+06 
2.099999999994e+01 4.890178262626e+06 
2.199999999994e+01 4.890165261433e+06 
2.299999999994e+01 4.890153995072e+06 
2.399999999994e+01 4.890151670564e+06 
2.499999999993e+01 4.890130464268e+06 
2.599999999993e+01 4.890115627196e+06 
2.699999999993e+01 4.890120754149e+06 
2.799999999992e+01 4.890119595216e+06 
2.899999999992e+01 4.890104788879e+06 
2.999999999992e+01 4.890093317871e+06 
3.099999999992e+01 4.890099946379e+06 
3.199999999991e+01 4.890109439431e+06 
3.299999999992e+01 4.890120216524e+06 
3.399999999992e+01 4.890141240373e+06 
3.499999999992e+01 4.890160779253e+06 
3.599999999992e+01 4.890163709143e+06 
3.699999999993e+01 4.890153212218e+06 
3.799999999993e+01 4.890142946774e+06 
3.899999999993e+01 4.890136952945e+06 
3.999999999993e+01 4.890124402038e+06 
4.099999999994e+01 4.890113578027e+06 
4.199999999994e+01 4.890099191999e+06 
4.299999999994e+01 4.890081927632e+06 
4.399999999995e+01 4.890082006473e+06 
4.499999999995e+01 4.890089558846e+06 
4.599999999995e+01 4.890101813086e+06 
4.699999999995e+01 4.890109215213e+06 
4.799999999996e+01 4.890106450727e+06 
4.899999999996e+01 4.890101862073e+06 
4.999999999996e+01 4.890103154285e+06 
5.099999999996e+01 4.890107288066e+06 
5.199999999997e+01 4.890112381752e+06 
5.299999999997e+01 4.890127659156e+06 
5.399999999997e+01 4.890133094788e+06 
5.499999999998e+01 4.890127797864e+06 
5.599999999998e+01 4.890107944794e+06 
5.699999999998e+01 4.890078061933e+06 
5.799999999998e+01 4.890069220935e+06 
5.899999999999e+01 4.890067894029e+06 
5.999999999999e+01 4.890070540478e+06 
6.099999999999e+01 4.890068557424e+06 
6.199999999999e+01 4.890071595394e+06 
6.300000000000e+01 4.890080730458e+06 
6.400000000000e+01 4.890083487119e+06 
 ZONE T="TIME=1.200000001000e+03"
0.000000000000e+00 4.890125753228e+06 
1.000000000001e+00 4.890115586329e+06 
1.999999999998e+00 4.890108413603e+06 
2.999999999996e+00 4.890118877496e+06 
3.999999999993e+00 4.890132928358e+06 
4.999999999990e+00 4.890146279145e+06 
5.999999999987e+00 4.890160680058e+06 
6.999999999984e+00 4.890167135038e+06 
7.999999999981e+00 4.890178141542e+06 
8.999999999979e+00 4.890184231190e+06 
9.999999999976e+00 4.890186088765e+06 
1.099999999997e+01 4.890185071473e+06 
1.199999999997e+01 4.890177336157e+06 
1.299999999997e+01 4.890182298663e+06 
1.399999999996e+01 4.890198183868e+06 
1.499999999996e+01 4.890205323401e+06 
1.599999999996e+01 4.890194198507e+06 
1.699999999996e+01 4.890172053668e+06 
1.799999999995e+01 4.890164276147e+06 
1.899999999995e+01 4.890176333818e+06 
1.999999999995e+01 4.890179252002e+06 
2.099999999994e+01 4.890178262626e+06 
2.199999999994e+01 4.890165261433e+06 
2.299999999994e+01 4.890153995072e+06 
2.399999999994e+01 4.890151670564e+06 
2.499999999993e+01 4.890130464268e+06 
2.599999999993e+01 4.890115627196e+06 
2.699999999993e+01 4.890120754149e+06 
2.799999999992e+01 4.890119595216e+06 
2.899999999992e+01 4.890104788879e+06 
2.999999999992e+01 4.890093317871e+06 
3.099999999992e+01 4.890099946379e+06 
3.199999999991e+01 4.890109439431e+06 
3.299999999992e+01 4.890120216524e+06 
3.399999999992e+01 4.890141240373e+06 
3.499999999992e+01 4.890160779253e+06 
3.599999999992e+01 4.890163709143e+06 
3.699999999993e+01 4.890153212218e+06 
3.799999999993e+01 4.890142946774e+06 
3.899999999993e+01 4.890136952945e+06 
3.999999999993e+01 4.890124402038e+06 
4.099999999994e+01 4.890113578027e+06 
4.199999999994e+01 4.890099191999e+06 
4.299999999994e+01 4.890081927632e+06 
4.399999999995e+01 4.890082006473e+06 
4.499999999995e+01 4.890089558846e+06 
4.599999999995e+01 4.890101813086e+06 
4.699999999995e+01 4.890109215213e+06 
4.799999999996e+01 4.890106450727e+06 
4.899999999996e+01 4.890101862073e+06 
4.999999999996e+01 4.890103154285e+06 
5.099999999996e+01 4.890107288066e+06 
5.199999999997e+01 4.890112381752e+06 
5.299999999997e+01 4.890127659156e+06 
5.399999999997e+01 4.890133094788e+06 
5.499999999998e+01 4.890127797864e+06 
5.599999999998e+01 4.890107944794e+06 
5.699999999998e+01 4.890078061933e+06 
5.799999999998e+01 4.890069220935e+06 
5.899999999999e+01 4.890067894029e+06 
5.999999999999e+01 4.890070540478e+06 
6.099999999999e+01 4.890068557424e+06 
6.199999999999e+01 4.890071595394e+06 
6.300000000000e+01 4.890080730458e+06 
6.400000000000e+01 4.890083487119e+06 
 ZONE T="TIME=1.500000001000e+03"
0.000000000000e+00 4.890125753228e+06 
1.000000000001e+00 4.890115586329e+06 
1.999999999998e+00 4.890108413603e+06 
2.999999999996e+00 4.890118877496e+06 
3.999999999993e+00 4.890132928358e+06 
4.999999999990e+00 4.890146279145e+06 
5.999999999987e+00 4.890160680058e+06 
6.999999999984e+00 4.890167135038e+06 
7.999999999981e+00 4.890178141542e+06 
8.999999999979e+00 4.890184231190e+06 
9.999999999976e+00 4.890186088765e+06 
1.099999999997e+01 4.890185071473e+06 
1.199999999997e+01 4.890177336157e+06 
1.299999999997e+01 4.890182298663e+06 
1.399999999996e+01 4.890198183868e+06 
1.499999999996e+01 4.890205323401e+06 
1.599999999996e+01 4.890194198507e+06 
1.699999999996e+01 4.890172053668e+06 
1.799999999995e+01 4.890164276147e+06 
1.899999999995e+01 4.890176333818e+06 
1.999999999995e+01 4.890179252002e+06 
2.099999999994e+01 4.890178262626e+06 
2.199999999994e+01 4.890165261433e+06 
2.299999999994e+01 4.890153995072e+06 
2.399999999994e+01 4.890151670564e+06 
2.499999999993e+01 4.890130464268e+06 
2.599999999993e+01 4.890115627196e+06 
2.699999999993e+01 4.890120754149e+06 
2.799999999992e+01 4.890119595216e+06 
2.899999999992e+01 4.890104788879e+06 
2.999999999992e+01 4.890093317871e+06 
3.099999999992e+01 4.890099946379e+06 
3.199999999991e+01 4.890109439431e+06 
3.299999999992e+01 4.890120216524e+06 
3.399999999992e+01 4.890141240373e+06 
3.499999999992e+01 4.890160779253e+06 
3.599999999992e+01 4.890163709143e+06 
3.699999999993e+01 4.890153212218e+06 
3.799999999993e+01 4.890142946774e+06 
3.899999999993e+01 4.890136952945e+06 
3.999999999993e+01 4.890124402038e+06 
4.099999999994e+01 4.890113578027e+06 
4.199999999994e+01 4.890099191999e+06 
4.299999999994e+01 4.890081927632e+06 
4.399999999995e+01 4.890082006473e+06 
4.499999999995e+01 4.890089558846e+06 
4.599999999995e+01 4.890101813086e+06 
4.699999999995e+01 4.890109215213e+06 
4.799999999996e+01 4.890106450727e+06 
4.899999999996e+01 4.890101862073e+06 
4.999999999996e+01 4.890103154285e+06 
5.099999999996e+01 4.890107288066e+06 
5.199999999997e+01 4.890112381752e+06 
5.299999999997e+01 4.890127659156e+06 
5.399999999997e+01 4.890133094788e+06 
5.499999999998e+01 4.890127797864e+06 
5.599999999998e+01 4.890107944794e+06 
5.699999999998e+01 4.890078061933e+06 
5.799999999998e+01 4.890069220935e+06 
5.899999999999e+01 4.890067894029e+06 
5.999999999999e+01 4.890070540478e+06 
6.099999999999e+01 4.890068557424e+06 
6.199999999999e+01 4.890071595394e+06 
6.300000000000e+01 4.890080730458e+06 
6.400000000000e+01 4.890083487119e+06 
 ZONE T="TIME=1.800000001000e+03"
0.000000000000e+00 4.890125753228e+06 
1.000000000001e+00 4.890115586329e+06 
1.999999999998e+00 4.890108413603e+06 
2.999999999996e+00 4.890118877496e+06 
3.999999999993e+00 4.890132928358e+06 
4.999999999990e+00 4.890146279144e+06 
5.999999999987e+00 4.890160680058e+06 
6.999999999984e+00 4.890167135038e+06 
7.999999999981e+00 4.890178141542e+06 
8.999999999979e+00 4.890184231190e+06 
9.999999999976e+00 4.890186088765e+06 
1.099999999997e+01 4.890185071473e+06 
1.199999999997e+01 4.890177336156e+06 
1.299999999997e+01 4.890182298663e+06 
1.399999999996e+01 4.890198183868e+06 
1.499999999996e+01 4.890205323401e+06 
1.599999999996e+01 4.890194198507e+06 
1.699999999996e+01 4.890172053668e+06 
1.799999999995e+01 4.890164276147e+06 
1.899999999995e+01 4.890176333818e+06 
1.999999999995e+01 4.890179252002e+06 
2.099999999994e+01 4.890178262626e+06 
2.199999999994e+01 4.890165261433e+06 
2.299999999994e+01 4.890153995072e+06 
2.399999999994e+01 4.890151670564e+06 
2.499999999993e+01 4.890130464268e+06 
2.599999999993e+01 4.890115627196e+06 
2.699999999993e+01 4.890120754149e+06 
2.799999999992e+01 4.890119595216e+06 
2.899999999992e+01 4.890104788879e+06 
2.999999999992e+01 4.890093317871e+06 
3.099999999992e+01 4.890099946379e+06 
3.199999999991e+01 4.890109439431e+06 
3.299999999992e+01 4.890120216524e+06 
3.399999999992e+01 4.890141240373e+06 
3.499999999992e+01 4.890160779253e+06 
3.599999999992e+01 4.890163709143e+06 
3.699999999993e+01 4.890153212218e+06 
3.799999999993e+01 4.890142946774e+06 
3.899999999993e+01 4.890136952945e+06 
3.999999999993e+01 4.890124402038e+06 
4.099999999994e+01 4.890113578027e+06 
4.199999999994e+01 4.890099191999e+06 
4.299999999994e+01 4.890081927632e+06 
4.399999999995e+01 4.890082006473e+06 
4.499999999995e+01 4.890089558846e+06 
4.599999999995e+01 4.890101813086e+06 
4.699999999995e+01 4.890109215213e+06 
4.799999999996e+01 4.890106450727e+06 
4.899999999996e+01 4.890101862073e+06 
4.999999999996e+01 4.890103154285e+06 
5.099999999996e+01 4.890107288066e+06 
5.199999999997e+01 4.890112381752e+06 
5.299999999997e+01 4.890127659156e+06 
5.399999999997e+01 4.890133094788e+06 
5.499999999998e+01 4.890127797864e+06 
5.599999999998e+01 4.890107944794e+06 
5.699999999998e+01 4.890078061933e+06 
5.799999999998e+01 4.890069220935e+06 
5.899999999999e+01 4.890067894029e+06 
5.999999999999e+01 4.890070540478e+06 
6.099999999999e+01 4.890068557424e+06 
6.199999999999e+01 4.890071595394e+06 
6.300000000000e+01 4.890080730458e+06 
6.400000000000e+01 4.890083487119e+06 
 ZONE T="TIME=2.100000001000e+03"
0.000000000000e+00 4.890125753228e+06 
1.000000000001e+00 4.890115586329e+06 
1.999999999998e+00 4.890108413603e+06 
2.999999999996e+00 4.890118877496e+06 
3.999999999993e+00 4.890132928358e+06 
4.999999999990e+00 4.890146279145e+06 
5.999999999987e+00 4.890160680058e+06 
6.999999999984e+00 4.890167135038e+06 
7.999999999981e+00 4.890178141542e+06 
8.999999999979e+00 4.890184231190e+06 
9.999999999976e+00 4.890186088765e+06 
1.099999999997e+01 4.890185071473e+06 
1.199999999997e+01 4.890177336157e+06 
1.299999999997e+01 4.890182298663e+06 
1.399999999996e+01 4.890198183868e+06 
1.499999999996e+01 4.890205323401e+06 
1.599999999996e+01 4.890194198507e+06 
1.699999999996e+01 4.890172053668e+06 
1.799999999995e+01 4.890164276147e+06 
1.899999999995e+01 4.890176333818e+06 
1.999999999995e+01 4.890179252002e+06 
2.099999999994e+01 4.890178262626e+06 
2.199999999994e+01 4.890165261433e+06 
2.299999999994e+01 4.890153995072e+06 
2.399999999994e+01 4.890151670564e+06 
2.499999999993e+01 4.890130464268e+06 
2.599999999993e+01 4.890115627196e+06 
2.699999999993e+01 4.890120754149e+06 
2.799999999992e+01 4.890119595216e+06 
2.899999999992e+01 4.890104788879e+06 
2.999999999992e+01 4.890093317871e+06 
3.099999999992e+01 4.890099946379e+06 
3.199999999991e+01 4.890109439431e+06 
3.299999999992e+01 4.890120216524e+06 
3.399999999992e+01 4.890141240373e+06 
3.499999999992e+01 4.890160779253e+06 
3.599999999992e+01 4.890163709143e+06 
3.699999999993e+01 4.890153212218e+06 
3.799999999993e+01 4.890142946774e+06 
3.899999999993e+01 4.890136952945e+06 
3.999999999993e+01 4.890124402038e+06 
4.099999999994e+01 4.890113578027e+06 
4.199999999994e+01 4.890099191999e+06 
4.299999999994e+01 4.890081927632e+06 
4.399999999995e+01 4.890082006473e+06 
4.499999999995e+01 4.890089558846e+06 
4.599999999995e+01 4.890101813086e+06 
4.699999999995e+01 4.890109215213e+06 
4.799999999996e+01 4.890106450727e+06 
4.899999999996e+01 4.890101862073e+06 
4.999999999996e+01 4.890103154285e+06 
5.099999999996e+01 4.890107288066e+06 
5.199999999997e+01 4.890112381752e+06 
5.299999999997e+01 4.890127659156e+06 
5.399999999997e+01 4.890133094788e+06 
5.499999999998e+01 4.890127797864e+06 
5.599999999998e+01 4.890107944794e+06 
5.699999999998e+01 4.890078061933e+06 
5.799999999998e+01 4.890069220935e+06 
5.899999999999e+01 4.890067894029e+06 
5.999999999999e+01 4.890070540478e+06 
6.099999999999e+01 4.890068557424e+06 
6.199999999999e+01 4.890071595394e+06 
6.300000000000e+01 4.890080730458e+06 
6.400000000000e+01 4.890083487119e+06 
 ZONE T="TIME=2.400000001000e+03"
0.000000000000e+00 4.890125338264e+06 
1.000000000001e+00 4.890115058052e+06 
1.999999999998e+00 4.890107798060e+06 
2.999999999996e+00 4.890118348449e+06 
3.999999999993e+00 4.890132574690e+06 
4.999999999990e+00 4.890146155719e+06 
5.999999999987e+00 4.890160853350e+06 
6.999999999984e+00 4.890167493308e+06 
7.999999999981e+00 4.890178812372e+06 
8.999999999979e+00 4.890185048313e+06 
9.999999999976e+00 4.890186921989e+06 
1.099999999997e+01 4.890185862300e+06 
1.199999999997e+01 4.890177925219e+06 
1.299999999997e+01 4.890182964899e+06 
1.399999999996e+01 4.890199205845e+06 
1.499999999996e+01 4.890206538750e+06 
1.599999999996e+01 4.890195123426e+06 
1.699999999996e+01 4.890172502891e+06 
1.799999999995e+01 4.890164559404e+06 
1.899999999995e+01 4.890176860046e+06 
1.999999999995e+01 4.890179849740e+06 
2.099999999994e+01 4.890178854523e+06 
2.199999999994e+01 4.890165594524e+06 
2.299999999994e+01 4.890154124849e+06 
2.399999999994e+01 4.890151774651e+06 
2.499999999993e+01 4.890130245791e+06 
2.599999999993e+01 4.890115218548e+06 
2.699999999993e+01 4.890120404591e+06 
2.799999999992e+01 4.890119251359e+06 
2.899999999992e+01 4.890104243548e+06 
2.999999999992e+01 4.890092668399e+06 
3.099999999992e+01 4.890099357180e+06 
3.199999999991e+01 4.890108995288e+06 
3.299999999992e+01 4.890119938990e+06 
3.399999999992e+01 4.890141319554e+06 
3.499999999992e+01 4.890161304381e+06 
3.599999999992e+01 4.890164332476e+06 
3.699999999993e+01 4.890153632714e+06 
3.799999999993e+01 4.890143221220e+06 
3.899999999993e+01 4.890137150707e+06 
3.999999999993e+01 4.890124389016e+06 
4.099999999994e+01 4.890113403336e+06 
4.199999999994e+01 4.890098829864e+06 
4.299999999994e+01 4.890081430135e+06 
4.399999999995e+01 4.890081507831e+06 
4.499999999995e+01 4.890089128317e+06 
4.599999999995e+01 4.890101558970e+06 
4.699999999995e+01 4.890109097852e+06 
4.799999999996e+01 4.890106257714e+06 
4.899999999996e+01 4.890101563145e+06 
4.999999999996e+01 4.890102835395e+06 
5.099999999996e+01 4.890107021463e+06 
5.199999999997e+01 4.890112193629e+06 
5.299999999997e+01 4.890127741869e+06 
5.399999999997e+01 4.890133305347e+06 
5.499999999998e+01 4.890127922947e+06 
5.599999999998e+01 4.890107746747e+06 
5.699999999998e+01 4.890077642288e+06 
5.799999999998e+01 4.890068703059e+06 
5.899999999999e+01 4.890067346703e+06 
5.999999999999e+01 4.890070014133e+06 
6.099999999999e+01 4.890068026582e+06 
6.199999999999e+01 4.890071081846e+06 
6.300000000000e+01 4.890080334172e+06 
6.400000000000e+01 4.890083151162e+06 
 ZONE T="TIME=2.700000001000e+03"
0.000000000000e+00 4.890125029337e+06 
1.000000000001e+00 4.890114636337e+06 
1.999999999998e+00 4.890107288508e+06 
2.999999999996e+00 4.890117923419e+06 
3.999999999993e+00 4.890132319069e+06 
4.999999999990e+00 4.890146121162e+06 
5.999999999987e+00 4.890161102050e+06 
6.999999999984e+00 4.890167915083e+06 
7.999999999981e+00 4.890179523791e+06 
8.999999999979e+00 4.890185891375e+06 
9.999999999976e+00 4.890187766886e+06 
1.099999999997e+01 4.890186655051e+06 
1.199999999997e+01 4.890178510880e+06 
1.299999999997e+01 4.890183612553e+06 
1.399999999996e+01 4.890200184224e+06 
1.499999999996e+01 4.890207695738e+06 
1.599999999996e+01 4.890195996527e+06 
1.699999999996e+01 4.890172919238e+06 
1.799999999995e+01 4.890164812324e+06 
1.899999999995e+01 4.890177337000e+06 
1.999999999995e+01 4.890180390630e+06 
2.099999999994e+01 4.890179387441e+06 
2.199999999994e+01 4.890165882304e+06 
2.299999999994e+01 4.890154220223e+06 
2.399999999994e+01 4.890151844987e+06 
2.499999999993e+01 4.890130016430e+06 
2.599999999993e+01 4.890114812395e+06 
2.699999999993e+01 4.890120051302e+06 
2.799999999992e+01 4.890118903753e+06 
2.899999999992e+01 4.890103709948e+06 
2.999999999992e+01 4.890092040239e+06 
3.099999999992e+01 4.890098783111e+06 
3.199999999991e+01 4.890108555321e+06 
3.299999999992e+01 4.890119653448e+06 
3.399999999992e+01 4.890141365300e+06 
3.499999999992e+01 4.890161770304e+06 
3.599999999992e+01 4.890164891827e+06 
3.699999999993e+01 4.890154001280e+06 
3.799999999993e+01 4.890143454917e+06 
3.899999999993e+01 4.890137313522e+06 
3.999999999993e+01 4.890124354624e+06 
4.099999999994e+01 4.890113218276e+06 
4.199999999994e+01 4.890098472122e+06 
4.299999999994e+01 4.890080951164e+06 
4.399999999995e+01 4.890081027961e+06 
4.499999999995e+01 4.890088710024e+06 
4.599999999995e+01 4.890101304440e+06 
4.699999999995e+01 4.890108971335e+06 
4.799999999996e+01 4.890106058957e+06 
4.899999999996e+01 4.890101263995e+06 
4.999999999996e+01 4.890102515552e+06 
5.099999999996e+01 4.890106749004e+06 
5.199999999997e+01 4.890111993289e+06 
5.299999999997e+01 4.890127792858e+06 
5.399999999997e+01 4.890133476182e+06 
5.499999999998e+01 4.890128013431e+06 
5.599999999998e+01 4.890107536668e+06 
5.699999999998e+01 4.890077235751e+06 
5.799999999998e+01 4.890068206712e+06 
5.899999999999e+01 4.890066822701e+06 
5.999999999999e+01 4.890069508503e+06 
6.099999999999e+01 4.890067517149e+06 
6.199999999999e+01 4.890070586677e+06 
6.300000000000e+01 4.890079945828e+06 
6.400000000000e+01 4.890082818835e+06 
 ZONE T="TIME=3.000000001000e+03"
0.000000000000e+00 4.890124692543e+06 
1.000000000001e+00 4.890114178401e+06 
1.999999999998e+00 4.890106736179e+06 
2.999999999996e+00 4.890117460894e+06 
3.999999999993e+00 4.890132038692e+06 
4.999999999990e+00 4.890146081257e+06 
5.999999999987e+00 4.890161372405e+06 
6.999999999984e+00 4.890168377201e+06 
7.999999999981e+00 4.890180307254e+06 
8.999999999979e+00 4.890186819511e+06 
9.999999999976e+00 4.890188695276e+06 
1.099999999997e+01 4.890187524597e+06 
1.199999999997e+01 4.890179151208e+06 
1.299999999997e+01 4.890184319452e+06 
1.399999999996e+01 4.890201254048e+06 
1.499999999996e+01 4.890208962574e+06 
1.599999999996e+01 4.890196949716e+06 
1.699999999996e+01 4.890173371899e+06 
1.799999999995e+01 4.890165085691e+06 
1.899999999995e+01 4.890177854746e+06 