VARIABLES = "Time","Fluid_flux m3/s","Av._Ch_Ap","Contact_area","Hydraulic_Aperture","P2","P1","Si ppm","Pnorm","Chem Si ppm"
ZONE T=L4
0.000000000000e+00 0.000000000000e+00 0.000000000000e+00 0.000000000000e+00 0.000000000000e+00 0.000000000000e+00 0.000000000000e+00 0.000000000000e+00 0.000000000000e+00 0.000000000000e+00
1.000000000000e-06 8.333333331995e-08 6.070934877409e-04 1.147460937501e-02 5.385224459474e-05 4.890109428772e+06 4.896512503509e+06 0.000000000000e+00 1.797353938379e+03 0.000000000000e+00
3.000000010000e+02 8.333333332755e-08 6.070934877411e-04 1.147460937501e-02 5.385224459571e-05 4.890109428772e+06 4.896512503509e+06 0.000000000000e+00 1.797353938282e+03 0.000000000000e+00
6.000000010000e+02 8.333333334308e-08 6.070934877418e-04 1.147460937501e-02 5.385224459774e-05 4.890109428772e+06 4.896512503509e+06 0.000000000000e+00 1.797353938078e+03 0.000000000000e+00
9.000000010000e+02 8.333333333625e-08 6.070934877415e-04 1.147460937501e-02 5.385224459713e-05 4.890109428772e+06 4.896512503509e+06 0.000000000000e+00 1.797353938139e+03 0.000000000000e+00
1.200000001000e+03 8.333333332985e-08 6.070934877411e-04 1.147460937501e-02 5.385224459622e-05 4.890109428772e+06 4.896512503509e+06 0.000000000000e+00 1.797353938230e+03 0.000000000000e+00
1.500000001000e+03 8.333333332397e-08 6.070934877409e-04 1.147460937501e-02 5.385224459553e-05 4.890109428772e+06 4.896512503509e+06 0.000000000000e+00 1.797353938300e+03 0.000000000000e+00
1.800000001000e+03 8.333333333973e-08 6.070934877417e-04 1.147460937501e-02 5.385224459621e-05 4.890109428772e+06 4.896512503510e+06 0.000000000000e+00 1.797353938232e+03 0.000000000000e+00
2.100000001000e+03 8.333333333854e-08 6.070934877416e-04 1.147460937501e-02 5.385224459724e-05 4.890109428772e+06 4.896512503509e+06 0.000000000000e+00 1.797353938129e+03 0.000000000000e+00
2.400000001000e+03 8.333333331432e-08 6.034617153440e-04 1.220703125000e-02 5.342536009839e-05 4.890108961132e+06 4.896666752952e+06 0.000000000000e+00 1.840783286170e+03 0.000000000000e+00
2.700000001000e+03 8.333333334302e-08 6.001096669863e-04 1.293945312500e-02 5.302784538042e-05 4.890108533546e+06 4.896814911974e+06 0.000000000000e+00 1.882491798551e+03 0.000000000000e+00
3.000000001000e+03 8.333333332499e-08 5.965098240951e-04 1.367187500000e-02 5.260253672026e-05 4.890108069314e+06 4.896978436292e+06 0.000000000000e+00 1.928523663029e+03 0.000000000000e+00
3.300000001000e+03 8.333333332968e-08 5.928176349160e-04 1.416015625000e-02 5.217798145657e-05 4.890107597949e+06 4.897147039021e+06 0.000000000000e+00 1.975983047713e+03 0.000000000000e+00
3.600000001000e+03 8.333333332481e-08 5.892925629486e-04 1.440429687500e-02 5.178220447241e-05 4.890107151800e+06 4.897309239311e+06 0.000000000000e+00 2.021638179420e+03 0.000000000000e+00
3.900000001000e+03 8.333333334395e-08 5.861774340791e-04 1.611328125000e-02 5.135880602100e-05 4.890106666754e+06 4.897488347253e+06 0.000000000000e+00 2.072050235010e+03 0.000000000000e+00
4.200000001000e+03 8.333333333567e-08 6.070934877413e-04 1.147460937501e-02 5.385224459663e-05 4.890109428772e+06 4.896512503509e+06 0.000000000000e+00 1.797353938189e+03 0.000000000000e+00
4.500000001000e+03 8.333333330928e-08 5.950528842232e-04 1.391601562500e-02 5.243263734811e-05 4.890107881605e+06 4.897045252123e+06 0.000000000000e+00 1.947331670893e+03 0.000000000000e+00
4.800000001000e+03 8.333333333899e-08 5.830939341096e-04 1.611328125000e-02 5.102077725084e-05 4.890106273565e+06 4.897635646159e+06 0.000000000000e+00 2.113507656879e+03 0.000000000000e+00
5.100000001000e+03 8.333333334989e-08 5.715626109072e-04 1.879882812500e-02 4.961804244359e-05 4.890104582154e+06 4.898290758978e+06 0.000000000000e+00 2.297873717691e+03 0.000000000000e+00
5.400000001000e+03 8.333333336693e-08 5.600501882760e-04 2.099609375000e-02 4.822518601826e-05 4.890102814952e+06 4.899018983418e+06 0.000000000000e+00 2.502783609158e+03 0.000000000000e+00
5.700000001000e+03 8.333333343783e-08 5.502177386828e-04 2.661132812500e-02 4.684539282918e-05 4.890100990384e+06 4.899828447953e+06 0.000000000000e+00 2.730513834079e+03 0.000000000000e+00
6.000000001000e+03 8.333333369294e-08 5.405427867201e-04 3.198242187500e-02 4.548425346776e-05 4.890099173228e+06 4.900726322693e+06 0.000000000000e+00 2.983058865782e+03 0.000000000000e+00
6.300000001000e+03 8.333333334145e-08 6.070934877413e-04 1.147460937501e-02 5.385224459792e-05 4.890109428772e+06 4.896512503509e+06 0.000000000000e+00 1.797353938060e+03 0.000000000000e+00
6.600000001000e+03 8.333333335987e-08 5.868427362954e-04 1.586914062500e-02 5.144344584766e-05 4.890106764445e+06 4.897452069654e+06 0.000000000000e+00 2.061839629229e+03 0.000000000000e+00
6.900000001000e+03 8.333333336511e-08 5.666165261868e-04 1.953125000000e-02 4.903187562743e-05 4.890103851078e+06 4.898587144329e+06 0.000000000000e+00 2.381274802309e+03 0.000000000000e+00
7.200000001000e+03 8.333333358929e-08 5.488791456924e-04 2.685546875000e-02 4.668115501427e-05 4.890100779839e+06 4.899931271113e+06 0.000000000000e+00 2.759435564845e+03 0.000000000000e+00
7.500000001000e+03 8.333333575760e-08 5.328067139728e-04 3.637695312500e-02 4.438211759863e-05 4.890097754024e+06 4.901536435143e+06 0.000000000000e+00 3.210857096647e+03 0.000000000000e+00
7.800000001000e+03 8.333329397855e-08 5.164187635374e-04 4.516601562501e-02 4.203021557030e-05 4.890094441906e+06 4.903562808920e+06 0.000000000000e+00 3.780595248833e+03 0.000000000000e+00
8.100000001000e+03 8.333310652346e-08 5.031232777307e-04 5.468750000002e-02 3.997433058467e-05 4.890090886101e+06 4.905745963488e+06 0.000000000000e+00 4.394418733948e+03 0.000000000000e+00
8.400000001000e+03 8.333333331960e-08 6.070934877401e-04 1.147460937501e-02 5.385224459431e-05 4.890109428772e+06 4.896512503509e+06 0.000000000000e+00 1.797353938422e+03 0.000000000000e+00
8.700000001000e+03 8.333333333376e-08 5.830939341145e-04 1.611328125000e-02 5.102077724397e-05 4.890106273565e+06 4.897635646162e+06 0.000000000000e+00 2.113507657733e+03 0.000000000000e+00
9.000000001000e+03 8.333333341806e-08 5.600501884388e-04 2.099609375000e-02 4.822518595947e-05 4.890102814952e+06 4.899018983456e+06 0.000000000000e+00 2.502783618311e+03 0.000000000000e+00
9.300000001000e+03 8.333333401162e-08 5.405427885698e-04 3.198242187500e-02 4.548425317832e-05 4.890099173227e+06 4.900726322937e+06 0.000000000000e+00 2.983058922730e+03 0.000000000000e+00
9.600000001000e+03 8.333330205156e-08 5.224117636140e-04 4.370117187501e-02 4.281628512688e-05 4.890095620571e+06 4.902835721994e+06 0.000000000000e+00 3.576169418970e+03 0.000000000000e+00
9.900000001000e+03 8.333308115933e-08 5.047349258969e-04 5.346679687502e-02 4.022682550877e-05 4.890091386079e+06 4.905453514835e+06 0.000000000000e+00 4.312188645019e+03 0.000000000000e+00
1.020000000100e+04 8.333333031808e-08 4.903421837084e-04 6.884765625004e-02 3.775704016787e-05 4.890086104659e+06 4.908664412655e+06 0.000000000000e+00 5.214962751768e+03 0.000000000000e+00
1.050000000100e+04 8.333333332547e-08 6.070934877400e-04 1.147460937501e-02 5.385224459589e-05 4.890109428772e+06 4.896512503509e+06 0.000000000000e+00 1.797353938263e+03 0.000000000000e+00
1.080000000100e+04 8.333333334455e-08 5.868427362941e-04 1.586914062500e-02 5.144344584707e-05 4.890106764445e+06 4.897452069653e+06 0.000000000000e+00 2.061839629300e+03 0.000000000000e+00
1.110000000100e+04 8.333333338069e-08 5.666165261878e-04 1.953125000000e-02 4.903187562829e-05 4.890103851078e+06 4.898587144330e+06 0.000000000000e+00 2.381274802184e+03 0.000000000000e+00
1.140000000100e+04 8.333333357260e-08 5.488791456896e-04 2.685546875000e-02 4.668115501216e-05 4.890100779839e+06 4.899931271113e+06 0.000000000000e+00 2.759435565220e+03 0.000000000000e+00
1.170000000100e+04 8.333333575200e-08 5.328067139711e-04 3.637695312500e-02 4.438211759816e-05 4.890097754024e+06 4.901536435143e+06 0.000000000000e+00 3.210857096749e+03 0.000000000000e+00
1.200000000100e+04 8.333329395084e-08 5.164187635316e-04 4.516601562501e-02 4.203021556827e-05 4.890094441906e+06 4.903562808918e+06 0.000000000000e+00 3.780595249381e+03 0.000000000000e+00
1.230000000100e+04 8.333310653210e-08 5.031232777325e-04 5.468750000002e-02 3.997433058555e-05 4.890090886101e+06 4.905745963489e+06 0.000000000000e+00 4.394418733656e+03 0.000000000000e+00
1.260000000100e+04 8.333333336381e-08 6.070934877419e-04 1.147460937501e-02 5.385224460050e-05 4.890109428773e+06 4.896512503510e+06 0.000000000000e+00 1.797353937802e+03 0.000000000000e+00
1.290000000100e+04 8.333333334266e-08 5.950528842253e-04 1.391601562500e-02 5.243263735221e-05 4.890107881605e+06 4.897045252124e+06 0.000000000000e+00 1.947331670436e+03 0.000000000000e+00
1.320000000100e+04 8.333333332575e-08 5.830939341081e-04 1.611328125000e-02 5.102077724828e-05 4.890106273565e+06 4.897635646159e+06 0.000000000000e+00 2.113507657198e+03 0.000000000000e+00
1.350000000100e+04 8.333333335282e-08 5.715626109076e-04 1.879882812500e-02 4.961804244444e-05 4.890104582154e+06 4.898290758978e+06 0.000000000000e+00 2.297873717573e+03 0.000000000000e+00
1.380000000100e+04 8.333333337973e-08 5.600501882775e-04 2.099609375000e-02 4.822518601930e-05 4.890102814952e+06 4.899018983419e+06 0.000000000000e+00 2.502783608995e+03 0.000000000000e+00
1.410000000100e+04 8.333333347609e-08 5.502177386889e-04 2.661132812500e-02 4.684539283404e-05 4.890100990384e+06 4.899828447955e+06 0.000000000000e+00 2.730513833229e+03 0.000000000000e+00
1.440000000100e+04 8.333333368722e-08 5.405427867199e-04 3.198242187500e-02 4.548425346717e-05 4.890099173228e+06 4.900726322693e+06 0.000000000000e+00 2.983058865897e+03 0.000000000000e+00
1.470000000100e+04 8.333333330439e-08 6.070934877397e-04 1.147460937501e-02 5.385224459327e-05 4.890109428772e+06 4.896512503508e+06 0.000000000000e+00 1.797353938526e+03 0.000000000000e+00
1.500000000100e+04 8.333333333415e-08 6.034617153450e-04 1.220703125000e-02 5.342536010063e-05 4.890108961132e+06 4.896666752952e+06 0.000000000000e+00 1.840783285938e+03 0.000000000000e+00
1.530000000100e+04 8.333333333373e-08 6.001096669857e-04 1.293945312500e-02 5.302784537780e-05 4.890108533546e+06 4.896814911975e+06 0.000000000000e+00 1.882491798830e+03 0.000000000000e+00
1.560000000100e+04 8.333333333965e-08 5.965098240959e-04 1.367187500000e-02 5.260253672200e-05 4.890108069314e+06 4.896978436293e+06 0.000000000000e+00 1.928523662838e+03 0.000000000000e+00
1.590000000100e+04 8.333333333242e-08 5.928176349163e-04 1.416015625000e-02 5.217798145791e-05 4.890107597949e+06 4.897147039020e+06 0.000000000000e+00 1.975983047560e+03 0.000000000000e+00
1.620000000100e+04 8.333333333292e-08 5.892925629493e-04 1.440429687500e-02 5.178220447312e-05 4.890107151800e+06 4.897309239312e+06 0.000000000000e+00 2.021638179337e+03 0.000000000000e+00
1.650000000100e+04 8.333333334180e-08 5.861774340787e-04 1.611328125000e-02 5.135880602043e-05 4.890106666754e+06 4.897488347253e+06 0.000000000000e+00 2.072050235078e+03 0.000000000000e+00
1.680000000100e+04 8.333333332710e-08 6.070934877409e-04 1.147460937501e-02 5.385224459609e-05 4.890109428772e+06 4.896512503509e+06 0.000000000000e+00 1.797353938244e+03 0.000000000000e+00
1.710000000100e+04 8.333333333822e-08 6.070934877415e-04 1.147460937501e-02 5.385224459711e-05 4.890109428772e+06 4.896512503509e+06 0.000000000000e+00 1.797353938141e+03 0.000000000000e+00
1.740000000100e+04 8.333333334261e-08 6.070934877418e-04 1.147460937501e-02 5.385224459768e-05 4.890109428772e+06 4.896512503509e+06 0.000000000000e+00 1.797353938085e+03 0.000000000000e+00
1.770000000100e+04 8.333333334147e-08 6.070934877417e-04 1.147460937501e-02 5.385224459753e-05 4.890109428772e+06 4.896512503509e+06 0.000000000000e+00 1.797353938099e+03 0.000000000000e+00
1.800000000100e+04 8.333333332227e-08 6.070934877409e-04 1.147460937501e-02 5.385224459537e-05 4.890109428772e+06 4.896512503509e+06 0.000000000000e+00 1.797353938316e+03 0.000000000000e+00
1.830000000100e+04 8.333333333152e-08 6.070934877413e-04 1.147460937501e-02 5.385224459647e-05 4.890109428772e+06 4.896512503509e+06 0.000000000000e+00 1.797353938205e+03 0.000000000000e+00
1.860000000100e+04 8.333333332672e-08 6.070934877410e-04 1.147460937501e-02 5.385224459576e-05 4.890109428772e+06 4.896512503509e+06 0.000000000000e+00 1.797353938277e+03 0.000000000000e+00
