VARIABLES = "X","Y","Z",VELOCITY_X1,VELOCITY_Y1
ZONE T="0.000000000000e+00s", 
-2.342330000000e+01 3.122180000000e+01 0.000000000000e+00 0.000000000000e+00 0.000000000000e+00 0.000000000000e+00
-2.242330000000e+01 3.122180000000e+01 0.000000000000e+00 0.000000000000e+00 0.000000000000e+00 0.000000000000e+00
-2.142329999999e+01 3.122180000000e+01 0.000000000000e+00 0.000000000000e+00 0.000000000000e+00 0.000000000000e+00
-2.042329999999e+01 3.122180000000e+01 0.000000000000e+00 0.000000000000e+00 0.000000000000e+00 0.000000000000e+00
-1.942329999999e+01 3.122180000000e+01 0.000000000000e+00 0.000000000000e+00 0.000000000000e+00 0.000000000000e+00
-1.842329999999e+01 3.122180000000e+01 0.000000000000e+00 0.000000000000e+00 0.000000000000e+00 0.000000000000e+00
-1.742329999999e+01 3.122180000000e+01 0.000000000000e+00 0.000000000000e+00 0.000000000000e+00 0.000000000000e+00
-1.642329999998e+01 3.122180000000e+01 0.000000000000e+00 0.000000000000e+00 0.000000000000e+00 0.000000000000e+00
-1.542329999998e+01 3.122180000000e+01 0.000000000000e+00 0.000000000000e+00 0.000000000000e+00 0.000000000000e+00
-1.442329999998e+01 3.122180000000e+01 0.000000000000e+00 0.000000000000e+00 0.000000000000e+00 0.000000000000e+00
-1.342329999998e+01 3.122180000000e+01 0.000000000000e+00 0.000000000000e+00 0.000000000000e+00 0.000000000000e+00
-1.242329999998e+01 3.122180000000e+01 0.000000000000e+00 0.000000000000e+00 0.000000000000e+00 0.000000000000e+00
-1.142329999997e+01 3.122180000000e+01 0.000000000000e+00 0.000000000000e+00 0.000000000000e+00 0.000000000000e+00
-1.042329999997e+01 3.122180000000e+01 0.000000000000e+00 0.000000000000e+00 0.000000000000e+00 0.000000000000e+00
-9.423299999970e+00 3.122180000000e+01 0.000000000000e+00 0.000000000000e+00 0.000000000000e+00 0.000000000000e+00
-8.423299999967e+00 3.122180000000e+01 0.000000000000e+00 0.000000000000e+00 0.000000000000e+00 0.000000000000e+00
-7.423299999965e+00 3.122180000000e+01 0.000000000000e+00 0.000000000000e+00 0.000000000000e+00 0.000000000000e+00
-6.423299999963e+00 3.122180000000e+01 0.000000000000e+00 0.000000000000e+00 0.000000000000e+00 0.000000000000e+00
-5.423299999961e+00 3.122180000000e+01 0.000000000000e+00 0.000000000000e+00 0.000000000000e+00 0.000000000000e+00
-4.423299999959e+00 3.122180000000e+01 0.000000000000e+00 0.000000000000e+00 0.000000000000e+00 0.000000000000e+00
-3.423299999957e+00 3.122180000000e+01 0.000000000000e+00 0.000000000000e+00 0.000000000000e+00 0.000000000000e+00
-2.423299999955e+00 3.122180000000e+01 0.000000000000e+00 0.000000000000e+00 0.000000000000e+00 0.000000000000e+00
-1.423299999953e+00 3.122180000000e+01 0.000000000000e+00 0.000000000000e+00 0.000000000000e+00 0.000000000000e+00
-4.232999999506e-01 3.122180000000e+01 0.000000000000e+00 0.000000000000e+00 0.000000000000e+00 0.000000000000e+00
5.767000000515e-01 3.122180000000e+01 0.000000000000e+00 0.000000000000e+00 0.000000000000e+00 0.000000000000e+00
1.576700000054e+00 3.122180000000e+01 0.000000000000e+00 0.000000000000e+00 0.000000000000e+00 0.000000000000e+00
2.576700000056e+00 3.122180000000e+01 0.000000000000e+00 0.000000000000e+00 0.000000000000e+00 0.000000000000e+00
3.576700000058e+00 3.122180000000e+01 0.000000000000e+00 0.000000000000e+00 0.000000000000e+00 0.000000000000e+00
4.576700000060e+00 3.122180000000e+01 0.000000000000e+00 0.000000000000e+00 0.000000000000e+00 0.000000000000e+00
5.576700000062e+00 3.122180000000e+01 0.000000000000e+00 0.000000000000e+00 0.000000000000e+00 0.000000000000e+00
6.576700000064e+00 3.122180000000e+01 0.000000000000e+00 0.000000000000e+00 0.000000000000e+00 0.000000000000e+00
7.576700000066e+00 3.122180000000e+01 0.000000000000e+00 0.000000000000e+00 0.000000000000e+00 0.000000000000e+00
8.576700000065e+00 3.122180000000e+01 0.000000000000e+00 0.000000000000e+00 0.000000000000e+00 0.000000000000e+00
9.576700000062e+00 3.122180000000e+01 0.000000000000e+00 0.000000000000e+00 0.000000000000e+00 0.000000000000e+00
1.057670000006e+01 3.122180000000e+01 0.000000000000e+00 0.000000000000e+00 0.000000000000e+00 0.000000000000e+00
1.157670000006e+01 3.122180000000e+01 0.000000000000e+00 0.000000000000e+00 0.000000000000e+00 0.000000000000e+00
1.257670000005e+01 3.122180000000e+01 0.000000000000e+00 0.000000000000e+00 0.000000000000e+00 0.000000000000e+00
1.357670000005e+01 3.122180000000e+01 0.000000000000e+00 0.000000000000e+00 0.000000000000e+00 0.000000000000e+00
1.457670000004e+01 3.122180000000e+01 0.000000000000e+00 0.000000000000e+00 0.000000000000e+00 0.000000000000e+00
1.557670000004e+01 3.122180000000e+01 0.000000000000e+00 0.000000000000e+00 0.000000000000e+00 0.000000000000e+00
1.657670000004e+01 3.122180000000e+01 0.000000000000e+00 0.000000000000e+00 0.000000000000e+00 0.000000000000e+00
1.757670000003e+01 3.122180000000e+01 0.000000000000e+00 0.000000000000e+00 0.000000000000e+00 0.000000000000e+00
1.857670000003e+01 3.122180000000e+01 0.000000000000e+00 0.000000000000e+00 0.000000000000e+00 0.000000000000e+00
1.957670000003e+01 3.122180000000e+01 0.000000000000e+00 0.000000000000e+00 0.000000000000e+00 0.000000000000e+00
2.057670000002e+01 3.122180000000e+01 0.000000000000e+00 0.000000000000e+00 0.000000000000e+00 0.000000000000e+00
2.157670000002e+01 3.122180000000e+01 0.000000000000e+00 0.000000000000e+00 0.000000000000e+00 0.000000000000e+00
2.257670000002e+01 3.122180000000e+01 0.000000000000e+00 0.000000000000e+00 0.000000000000e+00 0.000000000000e+00
2.357670000001e+01 3.122180000000e+01 0.000000000000e+00 0.000000000000e+00 0.000000000000e+00 0.000000000000e+00
2.457670000001e+01 3.122180000000e+01 0.000000000000e+00 0.000000000000e+00 0.000000000000e+00 0.000000000000e+00
2.557670000001e+01 3.122180000000e+01 0.000000000000e+00 0.000000000000e+00 0.000000000000e+00 0.000000000000e+00
2.657670000000e+01 3.122180000000e+01 0.000000000000e+00 0.000000000000e+00 0.000000000000e+00 0.000000000000e+00
2.757670000000e+01 3.122180000000e+01 0.000000000000e+00 0.000000000000e+00 0.000000000000e+00 0.000000000000e+00
2.857670000000e+01 3.122180000000e+01 0.000000000000e+00 0.000000000000e+00 0.000000000000e+00 0.000000000000e+00
2.957669999999e+01 3.122180000000e+01 0.000000000000e+00 0.000000000000e+00 0.000000000000e+00 0.000000000000e+00
3.057669999999e+01 3.122180000000e+01 0.000000000000e+00 0.000000000000e+00 0.000000000000e+00 0.000000000000e+00
3.157669999999e+01 3.122180000000e+01 0.000000000000e+00 0.000000000000e+00 0.000000000000e+00 0.000000000000e+00
3.257669999998e+01 3.122180000000e+01 0.000000000000e+00 0.000000000000e+00 0.000000000000e+00 0.000000000000e+00
3.357669999999e+01 3.122180000000e+01 0.000000000000e+00 0.000000000000e+00 0.000000000000e+00 0.000000000000e+00
3.457669999999e+01 3.122180000000e+01 0.000000000000e+00 0.000000000000e+00 0.000000000000e+00 0.000000000000e+00
3.557669999999e+01 3.122180000000e+01 0.000000000000e+00 0.000000000000e+00 0.000000000000e+00 0.000000000000e+00
3.657669999999e+01 3.122180000000e+01 0.000000000000e+00 0.000000000000e+00 0.000000000000e+00 0.000000000000e+00
3.757669999999e+01 3.122180000000e+01 0.000000000000e+00 0.000000000000e+00 0.000000000000e+00 0.000000000000e+00
3.857670000000e+01 3.122180000000e+01 0.000000000000e+00 0.000000000000e+00 0.000000000000e+00 0.000000000000e+00
3.957670000000e+01 3.122180000000e+01 0.000000000000e+00 0.000000000000e+00 0.000000000000e+00 0.000000000000e+00
VARIABLES = "X","Y","Z",VELOCITY_X1,VELOCITY_Y1
ZONE T="1.000000000000e-06s", 
-2.342330000000e+01 3.122180000000e+01 0.000000000000e+00 1.656965753671e-01 4.733206926461e-03 0.000000000000e+00
-2.242330000000e+01 3.122180000000e+01 0.000000000000e+00 1.653844135718e-01 -6.063028546962e-03 0.000000000000e+00
-2.142329999999e+01 3.122180000000e+01 0.000000000000e+00 1.136759765570e-01 3.575549666349e-02 0.000000000000e+00
-2.042329999999e+01 3.122180000000e+01 0.000000000000e+00 1.098353307852e-01 8.696479396473e-04 0.000000000000e+00
-1.942329999999e+01 3.122180000000e+01 0.000000000000e+00 9.499317939105e-02 -2.103979273234e-02 0.000000000000e+00
-1.842329999999e+01 3.122180000000e+01 0.000000000000e+00 7.341409886095e-02 1.129201937811e-03 0.000000000000e+00
-1.742329999999e+01 3.122180000000e+01 0.000000000000e+00 8.750657166055e-02 5.400635249340e-03 0.000000000000e+00
-1.642329999998e+01 3.122180000000e+01 0.000000000000e+00 1.020447717894e-01 5.262202818797e-03 0.000000000000e+00
-1.542329999998e+01 3.122180000000e+01 0.000000000000e+00 1.103217729869e-01 -4.573626630195e-03 0.000000000000e+00
-1.442329999998e+01 3.122180000000e+01 0.000000000000e+00 1.331849864485e-01 -1.623300552528e-02 0.000000000000e+00
-1.342329999998e+01 3.122180000000e+01 0.000000000000e+00 1.375943060825e-01 -1.370318843516e-02 0.000000000000e+00
-1.242329999998e+01 3.122180000000e+01 0.000000000000e+00 7.482870617145e-02 -2.668569072183e-02 0.000000000000e+00
-1.142329999997e+01 3.122180000000e+01 0.000000000000e+00 5.825192373409e-02 -1.391216512070e-02 0.000000000000e+00
-1.042329999997e+01 3.122180000000e+01 0.000000000000e+00 5.389832943210e-02 1.815354067353e-02 0.000000000000e+00
-9.423299999970e+00 3.122180000000e+01 0.000000000000e+00 7.769703282637e-02 9.374670836837e-03 0.000000000000e+00
-8.423299999967e+00 3.122180000000e+01 0.000000000000e+00 6.098069079302e-02 5.751538307697e-03 0.000000000000e+00
-7.423299999965e+00 3.122180000000e+01 0.000000000000e+00 5.914289880397e-02 -9.817286557488e-03 0.000000000000e+00
-6.423299999963e+00 3.122180000000e+01 0.000000000000e+00 6.124092467880e-02 -1.284819429493e-02 0.000000000000e+00
-5.423299999961e+00 3.122180000000e+01 0.000000000000e+00 3.382239777514e-02 3.472415277524e-02 0.000000000000e+00
-4.423299999959e+00 3.122180000000e+01 0.000000000000e+00 5.962600866081e-02 -1.329824147481e-02 0.000000000000e+00
-3.423299999957e+00 3.122180000000e+01 0.000000000000e+00 3.957146960444e-02 2.108770032325e-03 0.000000000000e+00
-2.423299999955e+00 3.122180000000e+01 0.000000000000e+00 4.797541186011e-02 1.995356908966e-03 0.000000000000e+00
-1.423299999953e+00 3.122180000000e+01 0.000000000000e+00 5.160624916285e-02 2.318842196869e-03 0.000000000000e+00
-4.232999999506e-01 3.122180000000e+01 0.000000000000e+00 6.348589544357e-02 -3.160593006252e-03 0.000000000000e+00
5.767000000515e-01 3.122180000000e+01 0.000000000000e+00 3.188500083657e-02 1.558484176616e-03 0.000000000000e+00
1.576700000054e+00 3.122180000000e+01 0.000000000000e+00 4.396830555854e-02 7.630476646592e-04 0.000000000000e+00
2.576700000056e+00 3.122180000000e+01 0.000000000000e+00 4.842837773738e-02 4.348301098118e-03 0.000000000000e+00
3.576700000058e+00 3.122180000000e+01 0.000000000000e+00 4.902770097366e-02 6.895185368639e-03 0.000000000000e+00
4.576700000060e+00 3.122180000000e+01 0.000000000000e+00 5.389582938689e-02 1.270274937154e-03 0.000000000000e+00
5.576700000062e+00 3.122180000000e+01 0.000000000000e+00 7.194969402745e-02 1.276258088503e-03 0.000000000000e+00
6.576700000064e+00 3.122180000000e+01 0.000000000000e+00 6.700228524506e-02 -5.808918329860e-03 0.000000000000e+00
7.576700000066e+00 3.122180000000e+01 0.000000000000e+00 5.350495044619e-02 7.942638719342e-03 0.000000000000e+00
8.576700000065e+00 3.122180000000e+01 0.000000000000e+00 5.464975279861e-02 -3.780730667959e-04 0.000000000000e+00
9.576700000062e+00 3.122180000000e+01 0.000000000000e+00 5.789337093365e-02 -1.014089090564e-02 0.000000000000e+00
1.057670000006e+01 3.122180000000e+01 0.000000000000e+00 6.620640256765e-02 1.251620628660e-02 0.000000000000e+00
1.157670000006e+01 3.122180000000e+01 0.000000000000e+00 8.376431306066e-02 2.823497457116e-03 0.000000000000e+00
1.257670000005e+01 3.122180000000e+01 0.000000000000e+00 6.518089686969e-02 1.420425379716e-02 0.000000000000e+00
1.357670000005e+01 3.122180000000e+01 0.000000000000e+00 7.205011957995e-02 -9.593980838893e-03 0.000000000000e+00
1.457670000004e+01 3.122180000000e+01 0.000000000000e+00 6.510664207307e-02 -5.082230178226e-03 0.000000000000e+00
1.557670000004e+01 3.122180000000e+01 0.000000000000e+00 6.070947465826e-02 -1.653694026079e-03 0.000000000000e+00
1.657670000004e+01 3.122180000000e+01 0.000000000000e+00 6.903776251222e-02 2.209942922435e-03 0.000000000000e+00
1.757670000003e+01 3.122180000000e+01 0.000000000000e+00 6.554651750582e-02 2.381295355681e-03 0.000000000000e+00
1.857670000003e+01 3.122180000000e+01 0.000000000000e+00 8.491031081506e-02 2.364314546404e-03 0.000000000000e+00
1.957670000003e+01 3.122180000000e+01 0.000000000000e+00 1.056919169117e-01 3.297514587469e-02 0.000000000000e+00
2.057670000002e+01 3.122180000000e+01 0.000000000000e+00 1.017467352402e-01 -2.249736758514e-03 0.000000000000e+00
2.157670000002e+01 3.122180000000e+01 0.000000000000e+00 7.388778152426e-02 -1.821563178978e-04 0.000000000000e+00
2.257670000002e+01 3.122180000000e+01 0.000000000000e+00 6.844304972491e-02 4.103674339955e-03 0.000000000000e+00
2.357670000001e+01 3.122180000000e+01 0.000000000000e+00 6.649371078719e-02 -2.570959898671e-03 0.000000000000e+00
2.457670000001e+01 3.122180000000e+01 0.000000000000e+00 7.071235570891e-02 -1.336234154772e-03 0.000000000000e+00
2.557670000001e+01 3.122180000000e+01 0.000000000000e+00 6.533005039054e-02 -6.692269414482e-03 0.000000000000e+00
2.657670000000e+01 3.122180000000e+01 0.000000000000e+00 4.919083608520e-02 -4.344157076433e-03 0.000000000000e+00
2.757670000000e+01 3.122180000000e+01 0.000000000000e+00 7.116989807477e-02 -3.203103022413e-03 0.000000000000e+00
2.857670000000e+01 3.122180000000e+01 0.000000000000e+00 8.890839440549e-02 8.667259236385e-03 0.000000000000e+00
2.957669999999e+01 3.122180000000e+01 0.000000000000e+00 8.418930224605e-02 2.699953888945e-04 0.000000000000e+00
3.057669999999e+01 3.122180000000e+01 0.000000000000e+00 6.070005886911e-02 -1.678222266583e-02 0.000000000000e+00
3.157669999999e+01 3.122180000000e+01 0.000000000000e+00 4.275534731835e-02 -1.389863311023e-02 0.000000000000e+00
3.257669999998e+01 3.122180000000e+01 0.000000000000e+00 2.007068125967e-02 -8.734397522095e-03 0.000000000000e+00
3.357669999999e+01 3.122180000000e+01 0.000000000000e+00 4.549394617648e-03 -6.800884442891e-04 0.000000000000e+00
3.457669999999e+01 3.122180000000e+01 0.000000000000e+00 1.374618253529e-02 1.725501617218e-02 0.000000000000e+00
3.557669999999e+01 3.122180000000e+01 0.000000000000e+00 3.159530352472e-02 5.286992052275e-03 0.000000000000e+00
3.657669999999e+01 3.122180000000e+01 0.000000000000e+00 3.713524165888e-02 1.158301792460e-04 0.000000000000e+00
3.757669999999e+01 3.122180000000e+01 0.000000000000e+00 4.264249728689e-02 1.535635225513e-03 0.000000000000e+00
3.857670000000e+01 3.122180000000e+01 0.000000000000e+00 3.453544128352e-02 1.365708119126e-02 0.000000000000e+00
3.957670000000e+01 3.122180000000e+01 0.000000000000e+00 3.765844056480e-02 5.074701707652e-03 0.000000000000e+00
VARIABLES = "X","Y","Z",VELOCITY_X1,VELOCITY_Y1
ZONE T="2.500000100000e+01s", 
-2.342330000000e+01 3.122180000000e+01 0.000000000000e+00 1.656965753671e-01 4.733206926460e-03 0.000000000000e+00
-2.242330000000e+01 3.122180000000e+01 0.000000000000e+00 1.653844135718e-01 -6.063028546963e-03 0.000000000000e+00
-2.142329999999e+01 3.122180000000e+01 0.000000000000e+00 1.136759765570e-01 3.575549666350e-02 0.000000000000e+00
-2.042329999999e+01 3.122180000000e+01 0.000000000000e+00 1.098353307852e-01 8.696479396427e-04 0.000000000000e+00
-1.942329999999e+01 3.122180000000e+01 0.000000000000e+00 9.499317939106e-02 -2.103979273234e-02 0.000000000000e+00
-1.842329999999e+01 3.122180000000e+01 0.000000000000e+00 7.341409886095e-02 1.129201937816e-03 0.000000000000e+00
-1.742329999999e+01 3.122180000000e+01 0.000000000000e+00 8.750657166055e-02 5.400635249335e-03 0.000000000000e+00
-1.642329999998e+01 3.122180000000e+01 0.000000000000e+00 1.020447717894e-01 5.262202818792e-03 0.000000000000e+00
-1.542329999998e+01 3.122180000000e+01 0.000000000000e+00 1.103217729869e-01 -4.573626630195e-03 0.000000000000e+00
-1.442329999998e+01 3.122180000000e+01 0.000000000000e+00 1.331849864485e-01 -1.623300552528e-02 0.000000000000e+00
-1.342329999998e+01 3.122180000000e+01 0.000000000000e+00 1.375943060825e-01 -1.370318843516e-02 0.000000000000e+00
-1.242329999998e+01 3.122180000000e+01 0.000000000000e+00 7.482870617145e-02 -2.668569072183e-02 0.000000000000e+00
-1.142329999997e+01 3.122180000000e+01 0.000000000000e+00 5.825192373408e-02 -1.391216512070e-02 0.000000000000e+00
-1.042329999997e+01 3.122180000000e+01 0.000000000000e+00 5.389832943210e-02 1.815354067352e-02 0.000000000000e+00
-9.423299999970e+00 3.122180000000e+01 0.000000000000e+00 7.769703282637e-02 9.374670836837e-03 0.000000000000e+00
-8.423299999967e+00 3.122180000000e+01 0.000000000000e+00 6.098069079302e-02 5.751538307698e-03 0.000000000000e+00
-7.423299999965e+00 3.122180000000e+01 0.000000000000e+00 5.914289880397e-02 -9.817286557488e-03 0.000000000000e+00
-6.423299999963e+00 3.122180000000e+01 0.000000000000e+00 6.124092467879e-02 -1.284819429493e-02 0.000000000000e+00
-5.423299999961e+00 3.122180000000e+01 0.000000000000e+00 3.382239777514e-02 3.472415277524e-02 0.000000000000e+00
-4.423299999959e+00 3.122180000000e+01 0.000000000000e+00 5.962600866081e-02 -1.329824147481e-02 0.000000000000e+00
-3.423299999957e+00 3.122180000000e+01 0.000000000000e+00 3.957146960444e-02 2.108770032324e-03 0.000000000000e+00
-2.423299999955e+00 3.122180000000e+01 0.000000000000e+00 4.797541186011e-02 1.995356908966e-03 0.000000000000e+00
-1.423299999953e+00 3.122180000000e+01 0.000000000000e+00 5.160624916285e-02 2.318842196870e-03 0.000000000000e+00
-4.232999999506e-01 3.122180000000e+01 0.000000000000e+00 6.348589544357e-02 -3.160593006252e-03 0.000000000000e+00
5.767000000515e-01 3.122180000000e+01 0.000000000000e+00 3.188500083657e-02 1.558484176616e-03 0.000000000000e+00
1.576700000054e+00 3.122180000000e+01 0.000000000000e+00 4.396830555854e-02 7.630476646592e-04 0.000000000000e+00
2.576700000056e+00 3.122180000000e+01 0.000000000000e+00 4.842837773738e-02 4.348301098118e-03 0.000000000000e+00
3.576700000058e+00 3.122180000000e+01 0.000000000000e+00 4.902770097366e-02 6.895185368639e-03 0.000000000000e+00
4.576700000060e+00 3.122180000000e+01 0.000000000000e+00 5.389582938689e-02 1.270274937154e-03 0.000000000000e+00
5.576700000062e+00 3.122180000000e+01 0.000000000000e+00 7.194969402745e-02 1.276258088503e-03 0.000000000000e+00
6.576700000064e+00 3.122180000000e+01 0.000000000000e+00 6.700228524506e-02 -5.808918329860e-03 0.000000000000e+00
7.576700000066e+00 3.122180000000e+01 0.000000000000e+00 5.350495044620e-02 7.942638719342e-03 0.000000000000e+00
8.576700000065e+00 3.122180000000e+01 0.000000000000e+00 5.464975279861e-02 -3.780730667959e-04 0.000000000000e+00
9.576700000062e+00 3.122180000000e+01 0.000000000000e+00 5.789337093365e-02 -1.014089090564e-02 0.000000000000e+00
1.057670000006e+01 3.122180000000e+01 0.000000000000e+00 6.620640256765e-02 1.251620628660e-02 0.000000000000e+00
1.157670000006e+01 3.122180000000e+01 0.000000000000e+00 8.376431306066e-02 2.823497457115e-03 0.000000000000e+00
1.257670000005e+01 3.122180000000e+01 0.000000000000e+00 6.518089686969e-02 1.420425379716e-02 0.000000000000e+00
1.357670000005e+01 3.122180000000e+01 0.000000000000e+00 7.205011957995e-02 -9.593980838894e-03 0.000000000000e+00
1.457670000004e+01 3.122180000000e+01 0.000000000000e+00 6.510664207307e-02 -5.082230178227e-03 0.000000000000e+00
1.557670000004e+01 3.122180000000e+01 0.000000000000e+00 6.070947465826e-02 -1.653694026080e-03 0.000000000000e+00
1.657670000004e+01 3.122180000000e+01 0.000000000000e+00 6.903776251222e-02 2.209942922435e-03 0.000000000000e+00
1.757670000003e+01 3.122180000000e+01 0.000000000000e+00 6.554651750582e-02 2.381295355681e-03 0.000000000000e+00
1.857670000003e+01 3.122180000000e+01 0.000000000000e+00 8.491031081506e-02 2.364314546405e-03 0.000000000000e+00
1.957670000003e+01 3.122180000000e+01 0.000000000000e+00 1.056919169117e-01 3.297514587469e-02 0.000000000000e+00
2.057670000002e+01 3.122180000000e+01 0.000000000000e+00 1.017467352402e-01 -2.249736758514e-03 0.000000000000e+00
2.157670000002e+01 3.122180000000e+01 0.000000000000e+00 7.388778152426e-02 -1.821563178972e-04 0.000000000000e+00
2.257670000002e+01 3.122180000000e+01 0.000000000000e+00 6.844304972491e-02 4.103674339954e-03 0.000000000000e+00
2.357670000001e+01 3.122180000000e+01 0.000000000000e+00 6.649371078720e-02 -2.570959898672e-03 0.000000000000e+00
2.457670000001e+01 3.122180000000e+01 0.000000000000e+00 7.071235570891e-02 -1.336234154772e-03 0.000000000000e+00
2.557670000001e+01 3.122180000000e+01 0.000000000000e+00 6.533005039054e-02 -6.692269414481e-03 0.000000000000e+00
2.657670000000e+01 3.122180000000e+01 0.000000000000e+00 4.919083608520e-02 -4.344157076433e-03 0.000000000000e+00
2.757670000000e+01 3.122180000000e+01 0.000000000000e+00 7.116989807477e-02 -3.203103022413e-03 0.000000000000e+00
2.857670000000e+01 3.122180000000e+01 0.000000000000e+00 8.890839440549e-02 8.667259236385e-03 0.000000000000e+00
2.957669999999e+01 3.122180000000e+01 0.000000000000e+00 8.418930224606e-02 2.699953888946e-04 0.000000000000e+00
3.057669999999e+01 3.122180000000e+01 0.000000000000e+00 6.070005886911e-02 -1.678222266583e-02 0.000000000000e+00
3.157669999999e+01 3.122180000000e+01 0.000000000000e+00 4.275534731835e-02 -1.389863311023e-02 0.000000000000e+00
3.257669999998e+01 3.122180000000e+01 0.000000000000e+00 2.007068125968e-02 -8.734397522095e-03 0.000000000000e+00
3.357669999999e+01 3.122180000000e+01 0.000000000000e+00 4.549394617648e-03 -6.800884442891e-04 0.000000000000e+00
3.457669999999e+01 3.122180000000e+01 0.000000000000e+00 1.374618253529e-02 1.725501617218e-02 0.000000000000e+00
3.557669999999e+01 3.122180000000e+01 0.000000000000e+00 3.159530352472e-02 5.286992052275e-03 0.000000000000e+00
3.657669999999e+01 3.122180000000e+01 0.000000000000e+00 3.713524165888e-02 1.158301792460e-04 0.000000000000e+00
3.757669999999e+01 3.122180000000e+01 0.000000000000e+00 4.264249728689e-02 1.535635225513e-03 0.000000000000e+00
3.857670000000e+01 3.122180000000e+01 0.000000000000e+00 3.453544128352e-02 1.365708119126e-02 0.000000000000e+00
3.957670000000e+01 3.122180000000e+01 0.000000000000e+00 3.765844056480e-02 5.074701707652e-03 0.000000000000e+00
VARIABLES = "X","Y","Z",VELOCITY_X1,VELOCITY_Y1
ZONE T="5.000000100000e+01s", 
-2.342330000000e+01 3.122180000000e+01 0.000000000000e+00 1.656965753671e-01 4.733206926461e-03 0.000000000000e+00
-2.242330000000e+01 3.122180000000e+01 0.000000000000e+00 1.653844135718e-01 -6.063028546964e-03 0.000000000000e+00
-2.142329999999e+01 3.122180000000e+01 0.000000000000e+00 1.136759765570e-01 3.575549666350e-02 0.000000000000e+00
-2.042329999999e+01 3.122180000000e+01 0.000000000000e+00 1.098353307852e-01 8.696479396467e-04 0.000000000000e+00
-1.942329999999e+01 3.122180000000e+01 0.000000000000e+00 9.499317939105e-02 -2.103979273234e-02 0.000000000000e+00
-1.842329999999e+01 3.122180000000e+01 0.000000000000e+00 7.341409886096e-02 1.129201937806e-03 0.000000000000e+00
-1.742329999999e+01 3.122180000000e+01 0.000000000000e+00 8.750657166055e-02 5.400635249340e-03 0.000000000000e+00
-1.642329999998e+01 3.122180000000e+01 0.000000000000e+00 1.020447717894e-01 5.262202818801e-03 0.000000000000e+00
-1.542329999998e+01 3.122180000000e+01 0.000000000000e+00 1.103217729869e-01 -4.573626630198e-03 0.000000000000e+00
-1.442329999998e+01 3.122180000000e+01 0.000000000000e+00 1.331849864485e-01 -1.623300552528e-02 0.000000000000e+00
-1.342329999998e+01 3.122180000000e+01 0.000000000000e+00 1.375943060825e-01 -1.370318843516e-02 0.000000000000e+00
-1.242329999998e+01 3.122180000000e+01 0.000000000000e+00 7.482870617145e-02 -2.668569072183e-02 0.000000000000e+00
-1.142329999997e+01 3.122180000000e+01 0.000000000000e+00 5.825192373409e-02 -1.391216512070e-02 0.000000000000e+00
-1.042329999997e+01 3.122180000000e+01 0.000000000000e+00 5.389832943210e-02 1.815354067352e-02 0.000000000000e+00
-9.423299999970e+00 3.122180000000e+01 0.000000000000e+00 7.769703282637e-02 9.374670836838e-03 0.000000000000e+00
-8.423299999967e+00 3.122180000000e+01 0.000000000000e+00 6.098069079302e-02 5.751538307697e-03 0.000000000000e+00
-7.423299999965e+00 3.122180000000e+01 0.000000000000e+00 5.914289880397e-02 -9.817286557488e-03 0.000000000000e+00
-6.423299999963e+00 3.122180000000e+01 0.000000000000e+00 6.124092467880e-02 -1.284819429493e-02 0.000000000000e+00
-5.423299999961e+00 3.122180000000e+01 0.000000000000e+00 3.382239777514e-02 3.472415277524e-02 0.000000000000e+00
-4.423299999959e+00 3.122180000000e+01 0.000000000000e+00 5.962600866081e-02 -1.329824147481e-02 0.000000000000e+00
-3.423299999957e+00 3.122180000000e+01 0.000000000000e+00 3.957146960444e-02 2.108770032325e-03 0.000000000000e+00
-2.423299999955e+00 3.122180000000e+01 0.000000000000e+00 4.797541186011e-02 1.995356908966e-03 0.000000000000e+00
-1.423299999953e+00 3.122180000000e+01 0.000000000000e+00 5.160624916285e-02 2.318842196869e-03 0.000000000000e+00
-4.232999999506e-01 3.122180000000e+01 0.000000000000e+00 6.348589544357e-02 -3.160593006252e-03 0.000000000000e+00
5.767000000515e-01 3.122180000000e+01 0.000000000000e+00 3.188500083657e-02 1.558484176616e-03 0.000000000000e+00
1.576700000054e+00 3.122180000000e+01 0.000000000000e+00 4.396830555854e-02 7.630476646592e-04 0.000000000000e+00
2.576700000056e+00 3.122180000000e+01 0.000000000000e+00 4.842837773738e-02 4.348301098118e-03 0.000000000000e+00
3.576700000058e+00 3.122180000000e+01 0.000000000000e+00 4.902770097366e-02 6.895185368639e-03 0.000000000000e+00
4.576700000060e+00 3.122180000000e+01 0.000000000000e+00 5.389582938689e-02 1.270274937155e-03 0.000000000000e+00
5.576700000062e+00 3.122180000000e+01 0.000000000000e+00 7.194969402745e-02 1.276258088503e-03 0.000000000000e+00
6.576700000064e+00 3.122180000000e+01 0.000000000000e+00 6.700228524506e-02 -5.808918329860e-03 0.000000000000e+00
7.576700000066e+00 3.122180000000e+01 0.000000000000e+00 5.350495044620e-02 7.942638719342e-03 0.000000000000e+00
8.576700000065e+00 3.122180000000e+01 0.000000000000e+00 5.464975279861e-02 -3.780730667960e-04 0.000000000000e+00
9.576700000062e+00 3.122180000000e+01 0.000000000000e+00 5.789337093365e-02 -1.014089090564e-02 0.000000000000e+00
1.057670000006e+01 3.122180000000e+01 0.000000000000e+00 6.620640256765e-02 1.251620628660e-02 0.000000000000e+00
1.157670000006e+01 3.122180000000e+01 0.000000000000e+00 8.376431306066e-02 2.823497457116e-03 0.000000000000e+00
1.257670000005e+01 3.122180000000e+01 0.000000000000e+00 6.518089686969e-02 1.420425379716e-02 0.000000000000e+00
1.357670000005e+01 3.122180000000e+01 0.000000000000e+00 7.205011957995e-02 -9.593980838894e-03 0.000000000000e+00
1.457670000004e+01 3.122180000000e+01 0.000000000000e+00 6.510664207307e-02 -5.082230178227e-03 0.000000000000e+00
1.557670000004e+01 3.122180000000e+01 0.000000000000e+00 6.070947465826e-02 -1.653694026079e-03 0.000000000000e+00
1.657670000004e+01 3.122180000000e+01 0.000000000000e+00 6.903776251223e-02 2.209942922435e-03 0.000000000000e+00
1.757670000003e+01 3.122180000000e+01 0.000000000000e+00 6.554651750582e-02 2.381295355681e-03 0.000000000000e+00
1.857670000003e+01 3.122180000000e+01 0.000000000000e+00 8.491031081506e-02 2.364314546405e-03 0.000000000000e+00
1.957670000003e+01 3.122180000000e+01 0.000000000000e+00 1.056919169117e-01 3.297514587469e-02 0.000000000000e+00
2.057670000002e+01 3.122180000000e+01 0.000000000000e+00 1.017467352402e-01 -2.249736758514e-03 0.000000000000e+00
2.157670000002e+01 3.122180000000e+01 0.000000000000e+00 7.388778152426e-02 -1.821563178985e-04 0.000000000000e+00
2.257670000002e+01 3.122180000000e+01 0.000000000000e+00 6.844304972491e-02 4.103674339954e-03 0.000000000000e+00
2.357670000001e+01 3.122180000000e+01 0.000000000000e+00 6.649371078720e-02 -2.570959898670e-03 0.000000000000e+00
2.457670000001e+01 3.122180000000e+01 0.000000000000e+00 7.071235570892e-02 -1.336234154771e-03 0.000000000000e+00
2.557670000001e+01 3.122180000000e+01 0.000000000000e+00 6.533005039054e-02 -6.692269414482e-03 0.000000000000e+00
2.657670000000e+01 3.122180000000e+01 0.000000000000e+00 4.919083608520e-02 -4.344157076433e-03 0.000000000000e+00
2.757670000000e+01 3.122180000000e+01 0.000000000000e+00 7.116989807477e-02 -3.203103022413e-03 0.000000000000e+00
2.857670000000e+01 3.122180000000e+01 0.000000000000e+00 8.890839440549e-02 8.667259236385e-03 0.000000000000e+00
2.957669999999e+01 3.122180000000e+01 0.000000000000e+00 8.418930224606e-02 2.699953888950e-04 0.000000000000e+00
3.057669999999e+01 3.122180000000e+01 0.000000000000e+00 6.070005886912e-02 -1.678222266583e-02 0.000000000000e+00
3.157669999999e+01 3.122180000000e+01 0.000000000000e+00 4.275534731835e-02 -1.389863311023e-02 0.000000000000e+00
3.257669999998e+01 3.122180000000e+01 0.000000000000e+00 2.007068125968e-02 -8.734397522095e-03 0.000000000000e+00
3.357669999999e+01 3.122180000000e+01 0.000000000000e+00 4.549394617649e-03 -6.800884442892e-04 0.000000000000e+00
3.457669999999e+01 3.122180000000e+01 0.000000000000e+00 1.374618253529e-02 1.725501617218e-02 0.000000000000e+00
3.557669999999e+01 3.122180000000e+01 0.000000000000e+00 3.159530352472e-02 5.286992052275e-03 0.000000000000e+00
3.657669999999e+01 3.122180000000e+01 0.000000000000e+00 3.713524165888e-02 1.158301792460e-04 0.000000000000e+00
3.757669999999e+01 3.122180000000e+01 0.000000000000e+00 4.264249728689e-02 1.535635225513e-03 0.000000000000e+00
3.857670000000e+01 3.122180000000e+01 0.000000000000e+00 3.453544128352e-02 1.365708119126e-02 0.000000000000e+00
3.957670000000e+01 3.122180000000e+01 0.000000000000e+00 3.765844056481e-02 5.074701707652e-03 0.000000000000e+00
VARIABLES = "X","Y","Z",VELOCITY_X1,VELOCITY_Y1