VARIABLES = "Time","Fluid_flux m3/s","Av._Ch_Ap","Contact_area","Hydraulic_Aperture","P2","P1","Si ppm","Pnorm","Chem Si ppm"
ZONE T=L4
0.000000000000e+00 0.000000000000e+00 0.000000000000e+00 0.000000000000e+00 0.000000000000e+00 0.000000000000e+00 0.000000000000e+00 0.000000000000e+00 0.000000000000e+00 0.000000000000e+00
1.000000000000e-06 8.333333332399e-08 6.058454686773e-04 1.708984375001e-03 5.402579601476e-05 4.890109439431e+06 4.896451004843e+06 0.000000000000e+00 1.780088166712e+03 0.000000000000e+00
3.000000010000e+02 8.333333333444e-08 6.058454686777e-04 1.708984375001e-03 5.402579601614e-05 4.890109439431e+06 4.896451004843e+06 0.000000000000e+00 1.780088166576e+03 0.000000000000e+00
6.000000010000e+02 8.333333332184e-08 6.058454686772e-04 1.708984375001e-03 5.402579601532e-05 4.890109439431e+06 4.896451004843e+06 0.000000000000e+00 1.780088166657e+03 0.000000000000e+00
9.000000010000e+02 8.333333332192e-08 6.058454686771e-04 1.708984375001e-03 5.402579601480e-05 4.890109439431e+06 4.896451004843e+06 0.000000000000e+00 1.780088166709e+03 0.000000000000e+00
1.200000001000e+03 8.333333333467e-08 6.058454686777e-04 1.708984375001e-03 5.402579601639e-05 4.890109439431e+06 4.896451004843e+06 0.000000000000e+00 1.780088166551e+03 0.000000000000e+00
1.500000001000e+03 8.333333333048e-08 6.058454686776e-04 1.708984375001e-03 5.402579601636e-05 4.890109439431e+06 4.896451004843e+06 0.000000000000e+00 1.780088166554e+03 0.000000000000e+00
1.800000001000e+03 8.333333332472e-08 6.058454686773e-04 1.708984375001e-03 5.402579601500e-05 4.890109439431e+06 4.896451004843e+06 0.000000000000e+00 1.780088166689e+03 0.000000000000e+00
2.100000001000e+03 8.333333333211e-08 6.058454686776e-04 1.708984375001e-03 5.402579601627e-05 4.890109439431e+06 4.896451004843e+06 0.000000000000e+00 1.780088166563e+03 0.000000000000e+00
2.400000001000e+03 8.333333332824e-08 6.020032225216e-04 1.953125000001e-03 5.359217524201e-05 4.890108995288e+06 4.896605740654e+06 0.000000000000e+00 1.823647442711e+03 0.000000000000e+00
2.700000001000e+03 8.333333333333e-08 5.984495936972e-04 2.197265625001e-03 5.318953984247e-05 4.890108555321e+06 4.896753957976e+06 0.000000000000e+00 1.865375795697e+03 0.000000000000e+00
3.000000001000e+03 8.333333333722e-08 5.945372300590e-04 2.197265625001e-03 5.275862653519e-05 4.890108075361e+06 4.896917643296e+06 0.000000000000e+00 1.911457268172e+03 0.000000000000e+00
3.300000001000e+03 8.333333331273e-08 5.907522583346e-04 2.441406250002e-03 5.232683420697e-05 4.890107589421e+06 4.897087126491e+06 0.000000000000e+00 1.959167893271e+03 0.000000000000e+00
3.600000001000e+03 8.333333332918e-08 5.872431283800e-04 2.685546875002e-03 5.192146616373e-05 4.890107123084e+06 4.897251414434e+06 0.000000000000e+00 2.005414698769e+03 0.000000000000e+00
3.900000001000e+03 8.333333330607e-08 5.838111434970e-04 3.662109375001e-03 5.148857375949e-05 4.890106628765e+06 4.897432637193e+06 0.000000000000e+00 2.056422991202e+03 0.000000000000e+00
4.200000001000e+03 8.333333331678e-08 6.058454686769e-04 1.708984375001e-03 5.402579601465e-05 4.890109439431e+06 4.896451004843e+06 0.000000000000e+00 1.780088166724e+03 0.000000000000e+00
4.500000001000e+03 8.333333333895e-08 5.930856510139e-04 2.441406250002e-03 5.258501175481e-05 4.890107883620e+06 4.896985121934e+06 0.000000000000e+00 1.930452458382e+03 0.000000000000e+00
4.800000001000e+03 8.333333332132e-08 5.810568293093e-04 4.394531250002e-03 5.114391115510e-05 4.890106191984e+06 4.897581312330e+06 0.000000000000e+00 2.098278959105e+03 0.000000000000e+00
5.100000001000e+03 8.333333334969e-08 5.689507490654e-04 5.615234375002e-03 4.971566358709e-05 4.890104424155e+06 4.898242472740e+06 0.000000000000e+00 2.284364039393e+03 0.000000000000e+00
5.400000001000e+03 8.333333338365e-08 5.575064664781e-04 7.812500000002e-03 4.829344528239e-05 4.890102566735e+06 4.898980981553e+06 0.000000000000e+00 2.492186095588e+03 0.000000000000e+00
5.700000001000e+03 8.333333352048e-08 5.463372503612e-04 1.000976562500e-02 4.687324311616e-05 4.890100646339e+06 4.899810775170e+06 0.000000000000e+00 2.725649624922e+03 0.000000000000e+00
6.000000001000e+03 8.333333386625e-08 5.360572450455e-04 1.367187500001e-02 4.545233641114e-05 4.890098407856e+06 4.900747960520e+06 0.000000000000e+00 2.989347475316e+03 0.000000000000e+00
6.300000001000e+03 8.333333332583e-08 6.058454686768e-04 1.708984375001e-03 5.402579601640e-05 4.890109439431e+06 4.896451004843e+06 0.000000000000e+00 1.780088166550e+03 0.000000000000e+00
6.600000001000e+03 8.333333333112e-08 5.845801507493e-04 3.662109375001e-03 5.157434923945e-05 4.890106730701e+06 4.897396247307e+06 0.000000000000e+00 2.046179674233e+03 0.000000000000e+00
6.900000001000e+03 8.333333338530e-08 5.642368308194e-04 6.835937500001e-03 4.911691877694e-05 4.890103663415e+06 4.898542967902e+06 0.000000000000e+00 2.368927080995e+03 0.000000000000e+00
7.200000001000e+03 8.333333369004e-08 5.450069315904e-04 1.025390625000e-02 4.670369567363e-05 4.890100402860e+06 4.899916667510e+06 0.000000000000e+00 2.755442123966e+03 0.000000000000e+00
7.500000001000e+03 8.333333821882e-08 5.282341416317e-04 1.757812500001e-02 4.428885780383e-05 4.890095717035e+06 4.901606810631e+06 0.000000000000e+00 3.231183305683e+03 0.000000000000e+00
7.800000001000e+03 8.333328851362e-08 5.121436911014e-04 2.636718750002e-02 4.178818598053e-05 4.890092009600e+06 4.903795752741e+06 0.000000000000e+00 3.846666010210e+03 0.000000000000e+00
8.100000001000e+03 8.333294771632e-08 4.989755685433e-04 3.442382812502e-02 3.957432033934e-05 4.890089441110e+06 4.906224018543e+06 0.000000000000e+00 4.529024207149e+03 0.000000000000e+00
8.400000001000e+03 8.333333334191e-08 6.058454686771e-04 1.708984375001e-03 5.402579601730e-05 4.890109439431e+06 4.896451004844e+06 0.000000000000e+00 1.780088166461e+03 0.000000000000e+00
8.700000001000e+03 8.333333332483e-08 5.810568293162e-04 4.394531250002e-03 5.114391114825e-05 4.890106191984e+06 4.897581312333e+06 0.000000000000e+00 2.098278959948e+03 0.000000000000e+00
9.000000001000e+03 8.333333344144e-08 5.575064666713e-04 7.812500000002e-03 4.829344521235e-05 4.890102566735e+06 4.898980981598e+06 0.000000000000e+00 2.492186106430e+03 0.000000000000e+00
9.300000001000e+03 8.333333435179e-08 5.360572476219e-04 1.367187500001e-02 4.545233607574e-05 4.890098407855e+06 4.900747960817e+06 0.000000000000e+00 2.989347541493e+03 0.000000000000e+00
9.600000001000e+03 8.333334406930e-08 5.169631896386e-04 2.221679687501e-02 4.262912083534e-05 4.890093201306e+06 4.903001854342e+06 0.000000000000e+00 3.623480333662e+03 0.000000000000e+00
9.900000001000e+03 8.333337135221e-08 5.004120225250e-04 3.295898437502e-02 3.984813444121e-05 4.890089813738e+06 4.905894148357e+06 0.000000000000e+00 4.436301507568e+03 0.000000000000e+00
1.020000000100e+04 8.332479609084e-08 4.854608421716e-04 4.345703125004e-02 3.715414314318e-05 4.890086048952e+06 4.909581521017e+06 0.000000000000e+00 5.472972762182e+03 0.000000000000e+00
1.050000000100e+04 8.333333334136e-08 6.058454686769e-04 1.708984375001e-03 5.402579601691e-05 4.890109439431e+06 4.896451004844e+06 0.000000000000e+00 1.780088166500e+03 0.000000000000e+00
1.080000000100e+04 8.333333334996e-08 5.845801507507e-04 3.662109375001e-03 5.157434924147e-05 4.890106730701e+06 4.897396247307e+06 0.000000000000e+00 2.046179673992e+03 0.000000000000e+00
1.110000000100e+04 8.333333339145e-08 5.642368308200e-04 6.835937500001e-03 4.911691877727e-05 4.890103663415e+06 4.898542967902e+06 0.000000000000e+00 2.368927080948e+03 0.000000000000e+00
1.140000000100e+04 8.333333368174e-08 5.450069315895e-04 1.025390625000e-02 4.670369567436e-05 4.890100402860e+06 4.899916667509e+06 0.000000000000e+00 2.755442123835e+03 0.000000000000e+00
1.170000000100e+04 8.333333820720e-08 5.282341416294e-04 1.757812500001e-02 4.428885780301e-05 4.890095717035e+06 4.901606810630e+06 0.000000000000e+00 3.231183305862e+03 0.000000000000e+00
1.200000000100e+04 8.333328849871e-08 5.121436910988e-04 2.636718750002e-02 4.178818598004e-05 4.890092009600e+06 4.903795752739e+06 0.000000000000e+00 3.846666010344e+03 0.000000000000e+00
1.230000000100e+04 8.333294770551e-08 4.989755685411e-04 3.442382812502e-02 3.957432033834e-05 4.890089441110e+06 4.906224018542e+06 0.000000000000e+00 4.529024207493e+03 0.000000000000e+00
1.260000000100e+04 8.333333330611e-08 6.058454686757e-04 1.708984375001e-03 5.402579601282e-05 4.890109439431e+06 4.896451004842e+06 0.000000000000e+00 1.780088166904e+03 0.000000000000e+00
1.290000000100e+04 8.333333331922e-08 5.930856510127e-04 2.441406250002e-03 5.258501175228e-05 4.890107883620e+06 4.896985121933e+06 0.000000000000e+00 1.930452458660e+03 0.000000000000e+00
1.320000000100e+04 8.333333334383e-08 5.810568293113e-04 4.394531250002e-03 5.114391115771e-05 4.890106191984e+06 4.897581312331e+06 0.000000000000e+00 2.098278958784e+03 0.000000000000e+00
1.350000000100e+04 8.333333336635e-08 5.689507490669e-04 5.615234375002e-03 4.971566358893e-05 4.890104424155e+06 4.898242472741e+06 0.000000000000e+00 2.284364039139e+03 0.000000000000e+00
1.380000000100e+04 8.333333338719e-08 5.575064664787e-04 7.812500000002e-03 4.829344528246e-05 4.890102566735e+06 4.898980981553e+06 0.000000000000e+00 2.492186095577e+03 0.000000000000e+00
1.410000000100e+04 8.333333348625e-08 5.463372503561e-04 1.000976562500e-02 4.687324311237e-05 4.890100646339e+06 4.899810775168e+06 0.000000000000e+00 2.725649625584e+03 0.000000000000e+00
1.440000000100e+04 8.333333383245e-08 5.360572450397e-04 1.367187500001e-02 4.545233640837e-05 4.890098407856e+06 4.900747960517e+06 0.000000000000e+00 2.989347475863e+03 0.000000000000e+00
1.470000000100e+04 8.333333331417e-08 6.058454686764e-04 1.708984375001e-03 5.402579601471e-05 4.890109439431e+06 4.896451004842e+06 0.000000000000e+00 1.780088166717e+03 0.000000000000e+00
1.500000000100e+04 8.333333334789e-08 6.020032225227e-04 1.953125000001e-03 5.359217524425e-05 4.890108995288e+06 4.896605740655e+06 0.000000000000e+00 1.823647442482e+03 0.000000000000e+00
1.530000000100e+04 8.333333334563e-08 5.984495936978e-04 2.197265625001e-03 5.318953984317e-05 4.890108555321e+06 4.896753957977e+06 0.000000000000e+00 1.865375795623e+03 0.000000000000e+00
1.560000000100e+04 8.333333333437e-08 5.945372300591e-04 2.197265625001e-03 5.275862653540e-05 4.890108075361e+06 4.896917643295e+06 0.000000000000e+00 1.911457268150e+03 0.000000000000e+00
1.590000000100e+04 8.333333334020e-08 5.907522583364e-04 2.441406250002e-03 5.232683421135e-05 4.890107589421e+06 4.897087126492e+06 0.000000000000e+00 1.959167892779e+03 0.000000000000e+00
1.620000000100e+04 8.333333333106e-08 5.872431283803e-04 2.685546875002e-03 5.192146616330e-05 4.890107123084e+06 4.897251414435e+06 0.000000000000e+00 2.005414698820e+03 0.000000000000e+00
1.650000000100e+04 8.333333335595e-08 5.838111435008e-04 3.662109375001e-03 5.148857376588e-05 4.890106628765e+06 4.897432637194e+06 0.000000000000e+00 2.056422990437e+03 0.000000000000e+00
1.680000000100e+04 8.333333335624e-08 6.058454686785e-04 1.708984375001e-03 5.402579601976e-05 4.890109439431e+06 4.896451004844e+06 0.000000000000e+00 1.780088166218e+03 0.000000000000e+00
1.710000000100e+04 8.333333332533e-08 6.058454686773e-04 1.708984375001e-03 5.402579601507e-05 4.890109439431e+06 4.896451004843e+06 0.000000000000e+00 1.780088166682e+03 0.000000000000e+00
1.740000000100e+04 8.333333332970e-08 6.058454686776e-04 1.708984375001e-03 5.402579601627e-05 4.890109439431e+06 4.896451004843e+06 0.000000000000e+00 1.780088166563e+03 0.000000000000e+00
1.770000000100e+04 8.333333331791e-08 6.058454686770e-04 1.708984375001e-03 5.402579601513e-05 4.890109439431e+06 4.896451004842e+06 0.000000000000e+00 1.780088166676e+03 0.000000000000e+00
1.800000000100e+04 8.333333332987e-08 6.058454686775e-04 1.708984375001e-03 5.402579601664e-05 4.890109439431e+06 4.896451004843e+06 0.000000000000e+00 1.780088166527e+03 0.000000000000e+00
1.830000000100e+04 8.333333331845e-08 6.058454686770e-04 1.708984375001e-03 5.402579601492e-05 4.890109439431e+06 4.896451004843e+06 0.000000000000e+00 1.780088166697e+03 0.000000000000e+00
1.860000000100e+04 8.333333333772e-08 6.058454686779e-04 1.708984375001e-03 5.402579601699e-05 4.890109439431e+06 4.896451004843e+06 0.000000000000e+00 1.780088166492e+03 0.000000000000e+00
