VARIABLES = "Time","Fluid_flux m3/s","Av._Ch_Ap","Contact_area","Hydraulic_Aperture","P2","P1","Si ppm","Pnorm","Chem Si ppm"
ZONE T=L1
0.000000000000e+00 0.000000000000e+00 0.000000000000e+00 0.000000000000e+00 0.000000000000e+00 5.000000000000e-02 5.000000000000e-02 0.000000000000e+00 0.000000000000e+00 0.000000000000e+00
1.000000000000e-06 2.123477561248e-04 5.083637522932e-04 2.246093750000e-02 1.957428016750e-05 1.000000000000e+05 3.398594319731e+08 0.000000000000e+00 3.742722571665e+04 0.000000000000e+00
2.500000100000e+01 2.123477561248e-04 5.083637522932e-04 2.246093750000e-02 1.957428016750e-05 1.000000000000e+05 3.398594319731e+08 0.000000000000e+00 3.742722571665e+04 0.000000000000e+00
5.000000100000e+01 2.123477561248e-04 5.083637522932e-04 2.246093750000e-02 1.957428016750e-05 1.000000000000e+05 3.398594319731e+08 0.000000000000e+00 3.742722571665e+04 0.000000000000e+00
7.500000100000e+01 2.123477561247e-04 5.083637522932e-04 2.246093750000e-02 1.957428016750e-05 1.000000000000e+05 3.398594319731e+08 0.000000000000e+00 3.742722571665e+04 0.000000000000e+00
1.000000010000e+02 2.743278425915e-04 4.123959488653e-04 1.450195312500e-01 1.358176009604e-05 1.000000000000e+05 1.314062495294e+09 0.000000000000e+00 1.120409730152e+05 0.000000000000e+00
1.250000010000e+02 2.743278425914e-04 4.123959488653e-04 1.450195312500e-01 1.358176009604e-05 1.000000000000e+05 1.314062495294e+09 0.000000000000e+00 1.120409730152e+05 0.000000000000e+00
1.500000010000e+02 2.743278425915e-04 4.123959488653e-04 1.450195312500e-01 1.358176009604e-05 1.000000000000e+05 1.314062495294e+09 0.000000000000e+00 1.120409730152e+05 0.000000000000e+00
1.750000010000e+02 2.743278425914e-04 4.123959488653e-04 1.450195312500e-01 1.358176009604e-05 1.000000000000e+05 1.314062495294e+09 0.000000000000e+00 1.120409730152e+05 0.000000000000e+00
2.000000010000e+02 2.695062221205e-04 4.110582243363e-04 4.987792968750e-01 6.215493144643e-06 1.000000000000e+05 1.346872517626e+10 0.000000000000e+00 1.169010094343e+06 0.000000000000e+00
2.250000010000e+02 2.695062221203e-04 4.110582243363e-04 4.987792968750e-01 6.215493144641e-06 1.000000000000e+05 1.346872517626e+10 0.000000000000e+00 1.169010094344e+06 0.000000000000e+00
2.500000010000e+02 2.695062221206e-04 4.110582243363e-04 4.987792968750e-01 6.215493144642e-06 1.000000000000e+05 1.346872517627e+10 0.000000000000e+00 1.169010094344e+06 0.000000000000e+00
2.750000010000e+02 2.695062221207e-04 4.110582243363e-04 4.987792968750e-01 6.215493144641e-06 1.000000000000e+05 1.346872517628e+10 0.000000000000e+00 1.169010094344e+06 0.000000000000e+00
3.000000010000e+02 2.405262590202e-04 4.291045766310e-04 5.759277343750e-01 4.934745773061e-06 1.000000000000e+05 2.401879412606e+10 0.000000000000e+00 2.335880846009e+06 0.000000000000e+00
3.250000010000e+02 2.405262590206e-04 4.291045766310e-04 5.759277343750e-01 4.934745773060e-06 1.000000000000e+05 2.401879412612e+10 0.000000000000e+00 2.335880846011e+06 0.000000000000e+00
3.500000010000e+02 2.405262590199e-04 4.291045766310e-04 5.759277343750e-01 4.934745773060e-06 1.000000000000e+05 2.401879412605e+10 0.000000000000e+00 2.335880846011e+06 0.000000000000e+00
3.750000010000e+02 2.405262590207e-04 4.291045766310e-04 5.759277343750e-01 4.934745773060e-06 1.000000000000e+05 2.401879412613e+10 0.000000000000e+00 2.335880846011e+06 0.000000000000e+00
4.000000010000e+02 1.714500410535e-04 4.485544630793e-04 6.391601562500e-01 3.841075546222e-06 1.000000000000e+05 3.630458602223e+10 0.000000000000e+00 4.953207134584e+06 0.000000000000e+00
4.250000010000e+02 1.714500410545e-04 4.485544630793e-04 6.391601562500e-01 3.841075546221e-06 1.000000000000e+05 3.630458602247e+10 0.000000000000e+00 4.953207134586e+06 0.000000000000e+00
4.500000010000e+02 1.714500410542e-04 4.485544630793e-04 6.391601562500e-01 3.841075546220e-06 1.000000000000e+05 3.630458602243e+10 0.000000000000e+00 4.953207134589e+06 0.000000000000e+00
4.750000010000e+02 1.714500410547e-04 4.485544630793e-04 6.391601562500e-01 3.841075546220e-06 1.000000000000e+05 3.630458602252e+10 0.000000000000e+00 4.953207134589e+06 0.000000000000e+00
5.000000010000e+02 1.990397874283e-04 4.687265658547e-04 6.904296875000e-01 3.756019676940e-06 1.000000000000e+05 4.507529030080e+10 0.000000000000e+00 5.297384059254e+06 0.000000000000e+00
5.250000010000e+02 1.990397874281e-04 4.687265658547e-04 6.904296875000e-01 3.756019676937e-06 1.000000000000e+05 4.507529030087e+10 0.000000000000e+00 5.297384059267e+06 0.000000000000e+00
5.500000010000e+02 1.990397874283e-04 4.687265658547e-04 6.904296875000e-01 3.756019676937e-06 1.000000000000e+05 4.507529030090e+10 0.000000000000e+00 5.297384059265e+06 0.000000000000e+00
5.750000010000e+02 1.990397874289e-04 4.687265658547e-04 6.904296875000e-01 3.756019676936e-06 1.000000000000e+05 4.507529030109e+10 0.000000000000e+00 5.297384059272e+06 0.000000000000e+00
6.000000010000e+02 1.714500410543e-04 4.485544630793e-04 6.391601562500e-01 3.841075546220e-06 1.000000000000e+05 3.630458602243e+10 0.000000000000e+00 4.953207134588e+06 0.000000000000e+00
6.250000010000e+02 1.714500410547e-04 4.485544630793e-04 6.391601562500e-01 3.841075546220e-06 1.000000000000e+05 3.630458602254e+10 0.000000000000e+00 4.953207134590e+06 0.000000000000e+00
6.500000010000e+02 1.714500410541e-04 4.485544630793e-04 6.391601562500e-01 3.841075546220e-06 1.000000000000e+05 3.630458602242e+10 0.000000000000e+00 4.953207134592e+06 0.000000000000e+00
6.750000010000e+02 1.714500410540e-04 4.485544630793e-04 6.391601562500e-01 3.841075546219e-06 1.000000000000e+05 3.630458602240e+10 0.000000000000e+00 4.953207134592e+06 0.000000000000e+00
7.000000010000e+02 2.405262590208e-04 4.291045766310e-04 5.759277343750e-01 4.934745773061e-06 1.000000000000e+05 2.401879412611e+10 0.000000000000e+00 2.335880846009e+06 0.000000000000e+00
7.250000010000e+02 2.405262590206e-04 4.291045766310e-04 5.759277343750e-01 4.934745773059e-06 1.000000000000e+05 2.401879412613e+10 0.000000000000e+00 2.335880846012e+06 0.000000000000e+00
7.500000010000e+02 2.405262590209e-04 4.291045766310e-04 5.759277343750e-01 4.934745773061e-06 1.000000000000e+05 2.401879412614e+10 0.000000000000e+00 2.335880846010e+06 0.000000000000e+00
7.750000010000e+02 2.405262590207e-04 4.291045766310e-04 5.759277343750e-01 4.934745773061e-06 1.000000000000e+05 2.401879412611e+10 0.000000000000e+00 2.335880846010e+06 0.000000000000e+00
8.000000010000e+02 2.695062221199e-04 4.110582243363e-04 4.987792968750e-01 6.215493144642e-06 1.000000000000e+05 1.346872517624e+10 0.000000000000e+00 1.169010094343e+06 0.000000000000e+00
8.250000010000e+02 2.695062221204e-04 4.110582243363e-04 4.987792968750e-01 6.215493144642e-06 1.000000000000e+05 1.346872517627e+10 0.000000000000e+00 1.169010094344e+06 0.000000000000e+00
8.500000010000e+02 2.695062221205e-04 4.110582243363e-04 4.987792968750e-01 6.215493144641e-06 1.000000000000e+05 1.346872517627e+10 0.000000000000e+00 1.169010094344e+06 0.000000000000e+00
8.750000010000e+02 2.695062221204e-04 4.110582243363e-04 4.987792968750e-01 6.215493144642e-06 1.000000000000e+05 1.346872517626e+10 0.000000000000e+00 1.169010094344e+06 0.000000000000e+00
9.000000010000e+02 2.695062221210e-04 4.110582243363e-04 4.987792968750e-01 6.215493144642e-06 1.000000000000e+05 1.346872517629e+10 0.000000000000e+00 1.169010094343e+06 0.000000000000e+00
