 TITLE = "Profiles along polylines"
 VARIABLES = "DIST" "PRESSURE1" 
 ZONE T="TIME=0.000000000000e+00"
0.000000000000e+00 5.000000000000e-02 
9.999999999972e-01 5.000000000000e-02 
1.999999999994e+00 5.000000000000e-02 
2.999999999992e+00 5.000000000000e-02 
3.999999999989e+00 5.000000000000e-02 
4.999999999986e+00 5.000000000000e-02 
5.999999999983e+00 5.000000000000e-02 
6.999999999981e+00 5.000000000000e-02 
7.999999999978e+00 5.000000000000e-02 
8.999999999975e+00 5.000000000000e-02 
9.999999999972e+00 5.000000000000e-02 
1.099999999997e+01 5.000000000000e-02 
1.199999999997e+01 5.000000000000e-02 
1.299999999996e+01 5.000000000000e-02 
1.399999999996e+01 5.000000000000e-02 
1.499999999996e+01 5.000000000000e-02 
1.599999999996e+01 5.000000000000e-02 
1.699999999995e+01 5.000000000000e-02 
1.799999999995e+01 5.000000000000e-02 
1.899999999995e+01 5.000000000000e-02 
1.999999999994e+01 5.000000000000e-02 
2.099999999994e+01 5.000000000000e-02 
2.199999999994e+01 5.000000000000e-02 
2.299999999994e+01 5.000000000000e-02 
2.399999999993e+01 5.000000000000e-02 
2.499999999993e+01 5.000000000000e-02 
2.599999999993e+01 5.000000000000e-02 
2.699999999993e+01 5.000000000000e-02 
2.799999999992e+01 5.000000000000e-02 
2.899999999992e+01 5.000000000000e-02 
2.999999999992e+01 5.000000000000e-02 
3.099999999991e+01 5.000000000000e-02 
3.199999999991e+01 5.000000000000e-02 
3.299999999991e+01 5.000000000000e-02 
3.399999999992e+01 5.000000000000e-02 
3.499999999992e+01 5.000000000000e-02 
3.599999999992e+01 5.000000000000e-02 
3.699999999993e+01 5.000000000000e-02 
3.799999999993e+01 5.000000000000e-02 
3.899999999993e+01 5.000000000000e-02 
3.999999999993e+01 5.000000000000e-02 
4.099999999994e+01 5.000000000000e-02 
4.199999999994e+01 5.000000000000e-02 
4.299999999994e+01 5.000000000000e-02 
4.399999999994e+01 5.000000000000e-02 
4.499999999995e+01 5.000000000000e-02 
4.599999999995e+01 5.000000000000e-02 
4.699999999995e+01 5.000000000000e-02 
4.799999999996e+01 5.000000000000e-02 
4.899999999996e+01 5.000000000000e-02 
4.999999999996e+01 5.000000000000e-02 
5.099999999996e+01 5.000000000000e-02 
5.199999999997e+01 5.000000000000e-02 
5.299999999997e+01 5.000000000000e-02 
5.399999999997e+01 5.000000000000e-02 
5.499999999998e+01 5.000000000000e-02 
5.599999999998e+01 5.000000000000e-02 
5.699999999998e+01 5.000000000000e-02 
5.799999999998e+01 5.000000000000e-02 
5.899999999999e+01 5.000000000000e-02 
5.999999999999e+01 5.000000000000e-02 
6.099999999999e+01 5.000000000000e-02 
6.199999999999e+01 5.000000000000e-02 
6.300000000000e+01 5.000000000000e-02 
6.400000000000e+01 5.000000000000e-02 
 TITLE = "Profiles along polylines"
 VARIABLES = "DIST" "PRESSURE1" 
 ZONE T="TIME=1.000000000000e-06"
0.000000000000e+00 3.432376813158e+08 
9.999999999972e-01 3.435805524636e+08 
1.999999999994e+00 3.441982433970e+08 
2.999999999992e+00 3.450610079412e+08 
3.999999999989e+00 3.459690505292e+08 
4.999999999986e+00 3.465040032390e+08 
5.999999999983e+00 3.469138470232e+08 
6.999999999981e+00 3.472679296719e+08 
7.999999999978e+00 3.476475468912e+08 
8.999999999975e+00 3.477523970521e+08 
9.999999999972e+00 3.475906978074e+08 
1.099999999997e+01 3.470468113899e+08 
1.199999999997e+01 3.461486004215e+08 
1.299999999996e+01 3.453027191552e+08 
1.399999999996e+01 3.440737616471e+08 
1.499999999996e+01 3.433237106918e+08 
1.599999999996e+01 3.428516311908e+08 
1.699999999995e+01 3.421339924146e+08 
1.799999999995e+01 3.413946505994e+08 
1.899999999995e+01 3.403823776392e+08 
1.999999999994e+01 3.397106130733e+08 
2.099999999994e+01 3.393496898890e+08 
2.199999999994e+01 3.392852861631e+08 
2.299999999994e+01 3.393794891463e+08 
2.399999999993e+01 3.394216073517e+08 
2.499999999993e+01 3.395566352736e+08 
2.599999999993e+01 3.393446957254e+08 
2.699999999993e+01 3.391027692198e+08 
2.799999999992e+01 3.389964392300e+08 
2.899999999992e+01 3.386442545536e+08 
2.999999999992e+01 3.380841077108e+08 
3.099999999991e+01 3.374172926437e+08 
3.199999999991e+01 3.368705869765e+08 
3.299999999991e+01 3.363804996044e+08 
3.399999999992e+01 3.359656199802e+08 
3.499999999992e+01 3.353686702065e+08 
3.599999999992e+01 3.343673101842e+08 
3.699999999993e+01 3.335220917221e+08 
3.799999999993e+01 3.326169455187e+08 
3.899999999993e+01 3.311640943192e+08 
3.999999999993e+01 3.294955663130e+08 
4.099999999994e+01 3.277109812863e+08 
4.199999999994e+01 3.250408916238e+08 
4.299999999994e+01 3.226954297524e+08 
4.399999999994e+01 3.223544330607e+08 
4.499999999995e+01 3.227562837162e+08 
4.599999999995e+01 3.235662333077e+08 
4.699999999995e+01 3.259443623019e+08 
4.799999999996e+01 3.273622949526e+08 
4.899999999996e+01 3.284623115543e+08 
4.999999999996e+01 3.292219105207e+08 
5.099999999996e+01 3.301737767231e+08 
5.199999999997e+01 3.312826365721e+08 
5.299999999997e+01 3.323775415937e+08 
5.399999999997e+01 3.333842593317e+08 
5.499999999998e+01 3.345213929115e+08 
5.599999999998e+01 3.357880148296e+08 
5.699999999998e+01 3.367647648220e+08 
5.799999999998e+01 3.372595214022e+08 
5.899999999999e+01 3.379139327444e+08 
5.999999999999e+01 3.386876209584e+08 
6.099999999999e+01 3.391172608249e+08 
6.199999999999e+01 3.395287094135e+08 
6.300000000000e+01 3.400114668288e+08 
6.400000000000e+01 3.401500151206e+08 
 ZONE T="TIME=2.500000100000e+01"
0.000000000000e+00 3.432376813158e+08 
9.999999999972e-01 3.435805524636e+08 
1.999999999994e+00 3.441982433970e+08 
2.999999999992e+00 3.450610079412e+08 
3.999999999989e+00 3.459690505292e+08 
4.999999999986e+00 3.465040032390e+08 
5.999999999983e+00 3.469138470232e+08 
6.999999999981e+00 3.472679296719e+08 
7.999999999978e+00 3.476475468912e+08 
8.999999999975e+00 3.477523970521e+08 
9.999999999972e+00 3.475906978074e+08 
1.099999999997e+01 3.470468113899e+08 
1.199999999997e+01 3.461486004215e+08 
1.299999999996e+01 3.453027191552e+08 
1.399999999996e+01 3.440737616471e+08 
1.499999999996e+01 3.433237106918e+08 
1.599999999996e+01 3.428516311908e+08 
1.699999999995e+01 3.421339924146e+08 
1.799999999995e+01 3.413946505994e+08 
1.899999999995e+01 3.403823776392e+08 
1.999999999994e+01 3.397106130733e+08 
2.099999999994e+01 3.393496898890e+08 
2.199999999994e+01 3.392852861631e+08 
2.299999999994e+01 3.393794891463e+08 
2.399999999993e+01 3.394216073517e+08 
2.499999999993e+01 3.395566352736e+08 
2.599999999993e+01 3.393446957254e+08 
2.699999999993e+01 3.391027692198e+08 
2.799999999992e+01 3.389964392300e+08 
2.899999999992e+01 3.386442545536e+08 
2.999999999992e+01 3.380841077108e+08 
3.099999999991e+01 3.374172926437e+08 
3.199999999991e+01 3.368705869765e+08 
3.299999999991e+01 3.363804996044e+08 
3.399999999992e+01 3.359656199802e+08 
3.499999999992e+01 3.353686702065e+08 
3.599999999992e+01 3.343673101842e+08 
3.699999999993e+01 3.335220917221e+08 
3.799999999993e+01 3.326169455187e+08 
3.899999999993e+01 3.311640943192e+08 
3.999999999993e+01 3.294955663130e+08 
4.099999999994e+01 3.277109812863e+08 
4.199999999994e+01 3.250408916238e+08 
4.299999999994e+01 3.226954297524e+08 
4.399999999994e+01 3.223544330607e+08 
4.499999999995e+01 3.227562837162e+08 
4.599999999995e+01 3.235662333077e+08 
4.699999999995e+01 3.259443623019e+08 
4.799999999996e+01 3.273622949526e+08 
4.899999999996e+01 3.284623115543e+08 
4.999999999996e+01 3.292219105207e+08 
5.099999999996e+01 3.301737767231e+08 
5.199999999997e+01 3.312826365721e+08 
5.299999999997e+01 3.323775415937e+08 
5.399999999997e+01 3.333842593317e+08 
5.499999999998e+01 3.345213929115e+08 
5.599999999998e+01 3.357880148296e+08 
5.699999999998e+01 3.367647648220e+08 
5.799999999998e+01 3.372595214022e+08 
5.899999999999e+01 3.379139327444e+08 
5.999999999999e+01 3.386876209584e+08 
6.099999999999e+01 3.391172608249e+08 
6.199999999999e+01 3.395287094135e+08 
6.300000000000e+01 3.400114668288e+08 
6.400000000000e+01 3.401500151206e+08 
 ZONE T="TIME=5.000000100000e+01"
0.000000000000e+00 3.432376813158e+08 
9.999999999972e-01 3.435805524636e+08 
1.999999999994e+00 3.441982433970e+08 
2.999999999992e+00 3.450610079412e+08 
3.999999999989e+00 3.459690505292e+08 
4.999999999986e+00 3.465040032390e+08 
5.999999999983e+00 3.469138470233e+08 
6.999999999981e+00 3.472679296719e+08 
7.999999999978e+00 3.476475468912e+08 
8.999999999975e+00 3.477523970521e+08 
9.999999999972e+00 3.475906978074e+08 
1.099999999997e+01 3.470468113899e+08 
1.199999999997e+01 3.461486004215e+08 
1.299999999996e+01 3.453027191552e+08 
1.399999999996e+01 3.440737616472e+08 
1.499999999996e+01 3.433237106918e+08 
1.599999999996e+01 3.428516311908e+08 
1.699999999995e+01 3.421339924147e+08 
1.799999999995e+01 3.413946505994e+08 
1.899999999995e+01 3.403823776392e+08 
1.999999999994e+01 3.397106130733e+08 
2.099999999994e+01 3.393496898890e+08 
2.199999999994e+01 3.392852861631e+08 
2.299999999994e+01 3.393794891463e+08 
2.399999999993e+01 3.394216073517e+08 
2.499999999993e+01 3.395566352736e+08 
2.599999999993e+01 3.393446957254e+08 
2.699999999993e+01 3.391027692198e+08 
2.799999999992e+01 3.389964392300e+08 
2.899999999992e+01 3.386442545536e+08 
2.999999999992e+01 3.380841077109e+08 
3.099999999991e+01 3.374172926437e+08 
3.199999999991e+01 3.368705869765e+08 
3.299999999991e+01 3.363804996044e+08 
3.399999999992e+01 3.359656199802e+08 
3.499999999992e+01 3.353686702066e+08 
3.599999999992e+01 3.343673101842e+08 
3.699999999993e+01 3.335220917221e+08 
3.799999999993e+01 3.326169455187e+08 
3.899999999993e+01 3.311640943192e+08 
3.999999999993e+01 3.294955663130e+08 
4.099999999994e+01 3.277109812863e+08 
4.199999999994e+01 3.250408916238e+08 
4.299999999994e+01 3.226954297524e+08 
4.399999999994e+01 3.223544330607e+08 
4.499999999995e+01 3.227562837162e+08 
4.599999999995e+01 3.235662333077e+08 
4.699999999995e+01 3.259443623019e+08 
4.799999999996e+01 3.273622949526e+08 
4.899999999996e+01 3.284623115543e+08 
4.999999999996e+01 3.292219105207e+08 
5.099999999996e+01 3.301737767232e+08 
5.199999999997e+01 3.312826365721e+08 
5.299999999997e+01 3.323775415937e+08 
5.399999999997e+01 3.333842593317e+08 
5.499999999998e+01 3.345213929115e+08 
5.599999999998e+01 3.357880148296e+08 
5.699999999998e+01 3.367647648220e+08 
5.799999999998e+01 3.372595214022e+08 
5.899999999999e+01 3.379139327444e+08 
5.999999999999e+01 3.386876209584e+08 
6.099999999999e+01 3.391172608250e+08 
6.199999999999e+01 3.395287094135e+08 
6.300000000000e+01 3.400114668288e+08 
6.400000000000e+01 3.401500151206e+08 
 ZONE T="TIME=7.500000100000e+01"
0.000000000000e+00 3.432376813158e+08 
9.999999999972e-01 3.435805524635e+08 
1.999999999994e+00 3.441982433970e+08 
2.999999999992e+00 3.450610079411e+08 
3.999999999989e+00 3.459690505292e+08 
4.999999999986e+00 3.465040032390e+08 
5.999999999983e+00 3.469138470232e+08 
6.999999999981e+00 3.472679296719e+08 
7.999999999978e+00 3.476475468912e+08 
8.999999999975e+00 3.477523970520e+08 
9.999999999972e+00 3.475906978074e+08 
1.099999999997e+01 3.470468113899e+08 
1.199999999997e+01 3.461486004215e+08 
1.299999999996e+01 3.453027191551e+08 
1.399999999996e+01 3.440737616471e+08 
1.499999999996e+01 3.433237106918e+08 
1.599999999996e+01 3.428516311908e+08 
1.699999999995e+01 3.421339924146e+08 
1.799999999995e+01 3.413946505994e+08 
1.899999999995e+01 3.403823776392e+08 
1.999999999994e+01 3.397106130733e+08 
2.099999999994e+01 3.393496898889e+08 
2.199999999994e+01 3.392852861631e+08 
2.299999999994e+01 3.393794891463e+08 
2.399999999993e+01 3.394216073517e+08 
2.499999999993e+01 3.395566352736e+08 
2.599999999993e+01 3.393446957254e+08 
2.699999999993e+01 3.391027692198e+08 
2.799999999992e+01 3.389964392300e+08 
2.899999999992e+01 3.386442545536e+08 
2.999999999992e+01 3.380841077108e+08 
3.099999999991e+01 3.374172926437e+08 
3.199999999991e+01 3.368705869764e+08 
3.299999999991e+01 3.363804996044e+08 
3.399999999992e+01 3.359656199802e+08 
3.499999999992e+01 3.353686702065e+08 
3.599999999992e+01 3.343673101842e+08 
3.699999999993e+01 3.335220917221e+08 
3.799999999993e+01 3.326169455187e+08 
3.899999999993e+01 3.311640943191e+08 
3.999999999993e+01 3.294955663130e+08 
4.099999999994e+01 3.277109812863e+08 
4.199999999994e+01 3.250408916237e+08 
4.299999999994e+01 3.226954297524e+08 
4.399999999994e+01 3.223544330607e+08 
4.499999999995e+01 3.227562837162e+08 
4.599999999995e+01 3.235662333077e+08 
4.699999999995e+01 3.259443623019e+08 
4.799999999996e+01 3.273622949526e+08 
4.899999999996e+01 3.284623115542e+08 
4.999999999996e+01 3.292219105207e+08 
5.099999999996e+01 3.301737767231e+08 
5.199999999997e+01 3.312826365721e+08 
5.299999999997e+01 3.323775415937e+08 
5.399999999997e+01 3.333842593317e+08 
5.499999999998e+01 3.345213929115e+08 
5.599999999998e+01 3.357880148296e+08 
5.699999999998e+01 3.367647648220e+08 
5.799999999998e+01 3.372595214021e+08 
5.899999999999e+01 3.379139327444e+08 
5.999999999999e+01 3.386876209584e+08 
6.099999999999e+01 3.391172608249e+08 
6.199999999999e+01 3.395287094135e+08 
6.300000000000e+01 3.400114668288e+08 
6.400000000000e+01 3.401500151206e+08 
 ZONE T="TIME=1.000000010000e+02"
0.000000000000e+00 1.318011743212e+09 
9.999999999972e-01 1.318652488857e+09 
1.999999999994e+00 1.319698926304e+09 
2.999999999992e+00 1.321129402629e+09 
3.999999999989e+00 1.322490203042e+09 
4.999999999986e+00 1.323169612534e+09 
5.999999999983e+00 1.323663874929e+09 
6.999999999981e+00 1.323968352093e+09 
7.999999999978e+00 1.324250468827e+09 
8.999999999975e+00 1.324173564193e+09 
9.999999999972e+00 1.323859774037e+09 
1.099999999997e+01 1.323312575861e+09 
1.199999999997e+01 1.322420595159e+09 
1.299999999996e+01 1.321356677892e+09 
1.399999999996e+01 1.319668681995e+09 
1.499999999996e+01 1.318577768924e+09 
1.599999999996e+01 1.317982535851e+09 
1.699999999995e+01 1.316944179042e+09 
1.799999999995e+01 1.315837537925e+09 
1.899999999995e+01 1.314252097837e+09 
1.999999999994e+01 1.313172877882e+09 
2.099999999994e+01 1.312703183444e+09 
2.199999999994e+01 1.312782134337e+09 
2.299999999994e+01 1.313162816045e+09 
2.399999999993e+01 1.313410711656e+09 
2.499999999993e+01 1.313787331707e+09 
2.599999999993e+01 1.313678653415e+09 
2.699999999993e+01 1.313484049871e+09 
2.799999999992e+01 1.313498693001e+09 
2.899999999992e+01 1.313167596230e+09 
2.999999999992e+01 1.312561276280e+09 
3.099999999991e+01 1.311799016925e+09 
3.199999999991e+01 1.311214718268e+09 
3.299999999991e+01 1.310758098520e+09 
3.399999999992e+01 1.310288210147e+09 
3.499999999992e+01 1.309567666670e+09 
3.599999999992e+01 1.308427386285e+09 
3.699999999993e+01 1.307315157081e+09 
3.799999999993e+01 1.306090036218e+09 
3.899999999993e+01 1.304381121233e+09 
3.999999999993e+01 1.302358254580e+09 
4.099999999994e+01 1.300041718924e+09 
4.199999999994e+01 1.296426174180e+09 
4.299999999994e+01 1.292539712083e+09 
4.399999999994e+01 1.292056145027e+09 
4.499999999995e+01 1.292865255319e+09 
4.599999999995e+01 1.294302360736e+09 
4.699999999995e+01 1.298223182303e+09 
4.799999999996e+01 1.300461401071e+09 
4.899999999996e+01 1.302188775948e+09 
4.999999999996e+01 1.303485454895e+09 
5.099999999996e+01 1.305039629402e+09 
5.199999999997e+01 1.306800004007e+09 
5.299999999997e+01 1.308505549300e+09 
5.399999999997e+01 1.310111494992e+09 
5.499999999998e+01 1.311906764823e+09 
5.599999999998e+01 1.313782805191e+09 
5.699999999998e+01 1.315339967015e+09 
5.799999999998e+01 1.316405781006e+09 
5.899999999999e+01 1.317445012691e+09 
5.999999999999e+01 1.318510305286e+09 
6.099999999999e+01 1.319240444205e+09 
6.199999999999e+01 1.319784800175e+09 
6.300000000000e+01 1.320223245974e+09 
6.400000000000e+01 1.320357830322e+09 
 ZONE T="TIME=1.250000010000e+02"
0.000000000000e+00 1.318011743212e+09 
9.999999999972e-01 1.318652488857e+09 
1.999999999994e+00 1.319698926304e+09 
2.999999999992e+00 1.321129402629e+09 
3.999999999989e+00 1.322490203042e+09 
4.999999999986e+00 1.323169612534e+09 
5.999999999983e+00 1.323663874929e+09 
6.999999999981e+00 1.323968352093e+09 
7.999999999978e+00 1.324250468827e+09 
8.999999999975e+00 1.324173564193e+09 
9.999999999972e+00 1.323859774037e+09 
1.099999999997e+01 1.323312575861e+09 
1.199999999997e+01 1.322420595159e+09 
1.299999999996e+01 1.321356677892e+09 
1.399999999996e+01 1.319668681995e+09 
1.499999999996e+01 1.318577768924e+09 
1.599999999996e+01 1.317982535851e+09 
1.699999999995e+01 1.316944179042e+09 
1.799999999995e+01 1.315837537925e+09 
1.899999999995e+01 1.314252097837e+09 
1.999999999994e+01 1.313172877881e+09 
2.099999999994e+01 1.312703183444e+09 
2.199999999994e+01 1.312782134337e+09 
2.299999999994e+01 1.313162816045e+09 
2.399999999993e+01 1.313410711656e+09 
2.499999999993e+01 1.313787331707e+09 
2.599999999993e+01 1.313678653415e+09 
2.699999999993e+01 1.313484049871e+09 
2.799999999992e+01 1.313498693001e+09 
2.899999999992e+01 1.313167596230e+09 
2.999999999992e+01 1.312561276280e+09 
3.099999999991e+01 1.311799016925e+09 
3.199999999991e+01 1.311214718268e+09 
3.299999999991e+01 1.310758098520e+09 
3.399999999992e+01 1.310288210147e+09 
3.499999999992e+01 1.309567666670e+09 
3.599999999992e+01 1.308427386285e+09 
3.699999999993e+01 1.307315157081e+09 
3.799999999993e+01 1.306090036218e+09 
3.899999999993e+01 1.304381121233e+09 
3.999999999993e+01 1.302358254580e+09 
4.099999999994e+01 1.300041718923e+09 
4.199999999994e+01 1.296426174180e+09 
4.299999999994e+01 1.292539712083e+09 
4.399999999994e+01 1.292056145027e+09 
4.499999999995e+01 1.292865255319e+09 
4.599999999995e+01 1.294302360736e+09 
4.699999999995e+01 1.298223182303e+09 
4.799999999996e+01 1.300461401071e+09 
4.899999999996e+01 1.302188775948e+09 
4.999999999996e+01 1.303485454895e+09 
5.099999999996e+01 1.305039629402e+09 
5.199999999997e+01 1.306800004007e+09 
5.299999999997e+01 1.308505549300e+09 
5.399999999997e+01 1.310111494992e+09 
5.499999999998e+01 1.311906764823e+09 
5.599999999998e+01 1.313782805191e+09 
5.699999999998e+01 1.315339967015e+09 
5.799999999998e+01 1.316405781006e+09 
5.899999999999e+01 1.317445012691e+09 
5.999999999999e+01 1.318510305286e+09 
6.099999999999e+01 1.319240444205e+09 
6.199999999999e+01 1.319784800175e+09 
6.300000000000e+01 1.320223245974e+09 
6.400000000000e+01 1.320357830322e+09 
 ZONE T="TIME=1.500000010000e+02"
0.000000000000e+00 1.318011743212e+09 
9.999999999972e-01 1.318652488857e+09 
1.999999999994e+00 1.319698926304e+09 
2.999999999992e+00 1.321129402629e+09 
3.999999999989e+00 1.322490203042e+09 
4.999999999986e+00 1.323169612534e+09 
5.999999999983e+00 1.323663874928e+09 
6.999999999981e+00 1.323968352093e+09 
7.999999999978e+00 1.324250468827e+09 
8.999999999975e+00 1.324173564193e+09 
9.999999999972e+00 1.323859774037e+09 
1.099999999997e+01 1.323312575861e+09 
1.199999999997e+01 1.322420595158e+09 
1.299999999996e+01 1.321356677892e+09 
1.399999999996e+01 1.319668681995e+09 
1.499999999996e+01 1.318577768924e+09 
1.599999999996e+01 1.317982535851e+09 
1.699999999995e+01 1.316944179042e+09 
1.799999999995e+01 1.315837537925e+09 
1.899999999995e+01 1.314252097837e+09 
1.999999999994e+01 1.313172877881e+09 
2.099999999994e+01 1.312703183444e+09 
2.199999999994e+01 1.312782134337e+09 
2.299999999994e+01 1.313162816045e+09 
2.399999999993e+01 1.313410711656e+09 
2.499999999993e+01 1.313787331707e+09 
2.599999999993e+01 1.313678653415e+09 
2.699999999993e+01 1.313484049871e+09 
2.799999999992e+01 1.313498693001e+09 
2.899999999992e+01 1.313167596230e+09 
2.999999999992e+01 1.312561276280e+09 
3.099999999991e+01 1.311799016925e+09 
3.199999999991e+01 1.311214718268e+09 
3.299999999991e+01 1.310758098520e+09 
3.399999999992e+01 1.310288210147e+09 
3.499999999992e+01 1.309567666670e+09 
3.599999999992e+01 1.308427386285e+09 
3.699999999993e+01 1.307315157081e+09 
3.799999999993e+01 1.306090036218e+09 
3.899999999993e+01 1.304381121233e+09 
3.999999999993e+01 1.302358254579e+09 
4.099999999994e+01 1.300041718923e+09 
4.199999999994e+01 1.296426174180e+09 
4.299999999994e+01 1.292539712083e+09 
4.399999999994e+01 1.292056145027e+09 
4.499999999995e+01 1.292865255319e+09 
4.599999999995e+01 1.294302360736e+09 
4.699999999995e+01 1.298223182303e+09 
4.799999999996e+01 1.300461401071e+09 
4.899999999996e+01 1.302188775948e+09 
4.999999999996e+01 1.303485454895e+09 
5.099999999996e+01 1.305039629402e+09 
5.199999999997e+01 1.306800004007e+09 
5.299999999997e+01 1.308505549300e+09 
5.399999999997e+01 1.310111494992e+09 
5.499999999998e+01 1.311906764823e+09 
5.599999999998e+01 1.313782805191e+09 
5.699999999998e+01 1.315339967015e+09 
5.799999999998e+01 1.316405781006e+09 
5.899999999999e+01 1.317445012691e+09 
5.999999999999e+01 1.318510305286e+09 
6.099999999999e+01 1.319240444205e+09 
6.199999999999e+01 1.319784800175e+09 
6.300000000000e+01 1.320223245974e+09 
6.400000000000e+01 1.320357830322e+09 
 ZONE T="TIME=1.750000010000e+02"
0.000000000000e+00 1.318011743212e+09 
9.999999999972e-01 1.318652488857e+09 
1.999999999994e+00 1.319698926304e+09 
2.999999999992e+00 1.321129402629e+09 
3.999999999989e+00 1.322490203042e+09 
4.999999999986e+00 1.323169612534e+09 
5.999999999983e+00 1.323663874928e+09 
6.999999999981e+00 1.323968352093e+09 
7.999999999978e+00 1.324250468827e+09 
8.999999999975e+00 1.324173564193e+09 
9.999999999972e+00 1.323859774037e+09 
1.099999999997e+01 1.323312575860e+09 
1.199999999997e+01 1.322420595158e+09 
1.299999999996e+01 1.321356677892e+09 
1.399999999996e+01 1.319668681995e+09 
1.499999999996e+01 1.318577768924e+09 
1.599999999996e+01 1.317982535851e+09 
1.699999999995e+01 1.316944179042e+09 
1.799999999995e+01 1.315837537925e+09 
1.899999999995e+01 1.314252097837e+09 
1.999999999994e+01 1.313172877881e+09 
2.099999999994e+01 1.312703183444e+09 
2.199999999994e+01 1.312782134337e+09 
2.299999999994e+01 1.313162816045e+09 
2.399999999993e+01 1.313410711656e+09 
2.499999999993e+01 1.313787331707e+09 
2.599999999993e+01 1.313678653415e+09 
2.699999999993e+01 1.313484049871e+09 
2.799999999992e+01 1.313498693001e+09 
2.899999999992e+01 1.313167596230e+09 
2.999999999992e+01 1.312561276280e+09 
3.099999999991e+01 1.311799016925e+09 
3.199999999991e+01 1.311214718268e+09 
3.299999999991e+01 1.310758098520e+09 
3.399999999992e+01 1.310288210146e+09 
3.499999999992e+01 1.309567666670e+09 
3.599999999992e+01 1.308427386285e+09 
3.699999999993e+01 1.307315157081e+09 
3.799999999993e+01 1.306090036218e+09 
3.899999999993e+01 1.304381121233e+09 
3.999999999993e+01 1.302358254579e+09 
4.099999999994e+01 1.300041718923e+09 
4.199999999994e+01 1.296426174180e+09 
4.299999999994e+01 1.292539712083e+09 
4.399999999994e+01 1.292056145027e+09 
4.499999999995e+01 1.292865255319e+09 
4.599999999995e+01 1.294302360736e+09 
4.699999999995e+01 1.298223182303e+09 
4.799999999996e+01 1.300461401071e+09 
4.899999999996e+01 1.302188775948e+09 
4.999999999996e+01 1.303485454895e+09 
5.099999999996e+01 1.305039629402e+09 
5.199999999997e+01 1.306800004007e+09 
5.299999999997e+01 1.308505549300e+09 
5.399999999997e+01 1.310111494992e+09 
5.499999999998e+01 1.311906764823e+09 
5.599999999998e+01 1.313782805191e+09 
5.699999999998e+01 1.315339967015e+09 
5.799999999998e+01 1.316405781006e+09 
5.899999999999e+01 1.317445012691e+09 
5.999999999999e+01 1.318510305286e+09 
6.099999999999e+01 1.319240444205e+09 
6.199999999999e+01 1.319784800175e+09 
6.300000000000e+01 1.320223245974e+09 
6.400000000000e+01 1.320357830322e+09 
 ZONE T="TIME=2.000000010000e+02"
0.000000000000e+00 1.348123898774e+10 
9.999999999972e-01 1.348336806859e+10 
1.999999999994e+00 1.348596076964e+10 
2.999999999992e+00 1.348697449888e+10 
3.999999999989e+00 1.348757522706e+10 
4.999999999986e+00 1.348788295505e+10 
5.999999999983e+00 1.348794048786e+10 
6.999999999981e+00 1.348778139327e+10 
7.999999999978e+00 1.348742200247e+10 
8.999999999975e+00 1.348686897666e+10 
9.999999999972e+00 1.348612291935e+10 
1.099999999997e+01 1.348518503561e+10 
1.199999999997e+01 1.348405997976e+10 
1.299999999996e+01 1.348276011208e+10 
1.399999999996e+01 1.348111621667e+10 
1.499999999996e+01 1.347946494331e+10 
1.599999999996e+01 1.347757322627e+10 
1.699999999995e+01 1.347530889690e+10 
1.799999999995e+01 1.347286132823e+10 
1.899999999995e+01 1.346936694447e+10 
1.999999999994e+01 1.346699704167e+10 
2.099999999994e+01 1.346626445779e+10 
2.199999999994e+01 1.346682267848e+10 
2.299999999994e+01 1.346805292447e+10 
2.399999999993e+01 1.346888251058e+10 
2.499999999993e+01 1.346963032570e+10 
2.599999999993e+01 1.346950768827e+10 
2.699999999993e+01 1.346926762690e+10 
2.799999999992e+01 1.346932811479e+10 
2.899999999992e+01 1.346892628232e+10 
2.999999999992e+01 1.346809435769e+10 
3.099999999991e+01 1.346697323994e+10 
3.199999999991e+01 1.346612399891e+10 
3.299999999991e+01 1.346550940112e+10 
3.399999999992e+01 1.346466907109e+10 
3.499999999992e+01 1.346350790748e+10 
3.599999999992e+01 1.346202754782e+10 
3.699999999993e+01 1.346042222831e+10 
3.799999999993e+01 1.345862795175e+10 
3.899999999993e+01 1.345653132753e+10 
3.999999999993e+01 1.345409776662e+10 
4.099999999994e+01 1.345115175163e+10 
4.199999999994e+01 1.344662087986e+10 
4.299999999994e+01 1.344070205812e+10 
4.399999999994e+01 1.343981667141e+10 
4.499999999995e+01 1.344080188878e+10 
4.599999999995e+01 1.344251609073e+10 
4.699999999995e+01 1.344737676464e+10 
4.799999999996e+01 1.344980085310e+10 
4.899999999996e+01 1.345149549349e+10 
4.999999999996e+01 1.345281310012e+10 
5.099999999996e+01 1.345441915909e+10 
5.199999999997e+01 1.345619907004e+10 
5.299999999997e+01 1.345778380096e+10 
5.399999999997e+01 1.345931165647e+10 
5.499999999998e+01 1.346118560425e+10 
5.599999999998e+01 1.346309244142e+10 
5.699999999998e+01 1.346450273395e+10 
5.799999999998e+01 1.346555835388e+10 
5.899999999999e+01 1.346667334403e+10 
5.999999999999e+01 1.346774284520e+10 
6.099999999999e+01 1.346839501023e+10 
6.199999999999e+01 1.346895992327e+10 
6.300000000000e+01 1.346945055675e+10 
6.400000000000e+01 1.346958383692e+10 
 ZONE T="TIME=2.250000010000e+02"
0.000000000000e+00 1.348123898773e+10 
9.999999999972e-01 1.348336806859e+10 
1.999999999994e+00 1.348596076964e+10 
2.999999999992e+00 1.348697449888e+10 
3.999999999989e+00 1.348757522706e+10 
4.999999999986e+00 1.348788295505e+10 
5.999999999983e+00 1.348794048786e+10 
6.999999999981e+00 1.348778139327e+10 
7.999999999978e+00 1.348742200246e+10 
8.999999999975e+00 1.348686897666e+10 
9.999999999972e+00 1.348612291934e+10 
1.099999999997e+01 1.348518503561e+10 
1.199999999997e+01 1.348405997976e+10 
1.299999999996e+01 1.348276011208e+10 
1.399999999996e+01 1.348111621666e+10 
1.499999999996e+01 1.347946494331e+10 
1.599999999996e+01 1.347757322627e+10 
1.699999999995e+01 1.347530889690e+10 
1.799999999995e+01 1.347286132823e+10 
1.899999999995e+01 1.346936694447e+10 
1.999999999994e+01 1.346699704167e+10 
2.099999999994e+01 1.346626445779e+10 
2.199999999994e+01 1.346682267848e+10 
2.299999999994e+01 1.346805292447e+10 
2.399999999993e+01 1.346888251057e+10 
2.499999999993e+01 1.346963032570e+10 
2.599999999993e+01 1.346950768827e+10 
2.699999999993e+01 1.346926762690e+10 
2.799999999992e+01 1.346932811479e+10 
2.899999999992e+01 1.346892628232e+10 
2.999999999992e+01 1.346809435768e+10 
3.099999999991e+01 1.346697323993e+10 
3.199999999991e+01 1.346612399890e+10 
3.299999999991e+01 1.346550940112e+10 
3.399999999992e+01 1.346466907108e+10 
3.499999999992e+01 1.346350790748e+10 
3.599999999992e+01 1.346202754782e+10 
3.699999999993e+01 1.346042222831e+10 
3.799999999993e+01 1.345862795175e+10 
3.899999999993e+01 1.345653132753e+10 
3.999999999993e+01 1.345409776662e+10 
4.099999999994e+01 1.345115175163e+10 
4.199999999994e+01 1.344662087986e+10 
4.299999999994e+01 1.344070205811e+10 
4.399999999994e+01 1.343981667141e+10 
4.499999999995e+01 1.344080188878e+10 
4.599999999995e+01 1.344251609072e+10 
4.699999999995e+01 1.344737676464e+10 
4.799999999996e+01 1.344980085310e+10 
4.899999999996e+01 1.345149549349e+10 
4.999999999996e+01 1.345281310012e+10 
5.099999999996e+01 1.345441915909e+10 
5.199999999997e+01 1.345619907004e+10 
5.299999999997e+01 1.345778380096e+10 
5.399999999997e+01 1.345931165647e+10 
5.499999999998e+01 1.346118560425e+10 
5.599999999998e+01 1.346309244142e+10 
5.699999999998e+01 1.346450273395e+10 
5.799999999998e+01 1.346555835388e+10 
5.899999999999e+01 1.346667334402e+10 
5.999999999999e+01 1.346774284519e+10 
6.099999999999e+01 1.346839501023e+10 
6.199999999999e+01 1.346895992327e+10 
6.300000000000e+01 1.346945055674e+10 
6.400000000000e+01 1.346958383692e+10 
 ZONE T="TIME=2.500000010000e+02"
0.000000000000e+00 1.348123898775e+10 
9.999999999972e-01 1.348336806860e+10 
1.999999999994e+00 1.348596076965e+10 
2.999999999992e+00 1.348697449889e+10 
3.999999999989e+00 1.348757522707e+10 
4.999999999986e+00 1.348788295506e+10 
5.999999999983e+00 1.348794048787e+10 
6.999999999981e+00 1.348778139328e+10 
7.999999999978e+00 1.348742200248e+10 
8.999999999975e+00 1.348686897667e+10 
9.999999999972e+00 1.348612291936e+10 
1.099999999997e+01 1.348518503562e+10 
1.199999999997e+01 1.348405997977e+10 
1.299999999996e+01 1.348276011209e+10 
1.399999999996e+01 1.348111621668e+10 
1.499999999996e+01 1.347946494332e+10 
1.599999999996e+01 1.347757322628e+10 
1.699999999995e+01 1.347530889691e+10 
1.799999999995e+01 1.347286132824e+10 
1.899999999995e+01 1.346936694449e+10 