 TITLE = "Profiles along polylines"
 VARIABLES = "DIST" "PRESSURE1" 
 ZONE T="TIME=0.000000000000e+00"
0.000000000000e+00 5.000000000000e-02 
1.000000000001e+00 5.000000000000e-02 
1.999999999998e+00 5.000000000000e-02 
2.999999999996e+00 5.000000000000e-02 
3.999999999993e+00 5.000000000000e-02 
4.999999999990e+00 5.000000000000e-02 
5.999999999987e+00 5.000000000000e-02 
6.999999999984e+00 5.000000000000e-02 
7.999999999981e+00 5.000000000000e-02 
8.999999999979e+00 5.000000000000e-02 
9.999999999976e+00 5.000000000000e-02 
1.099999999997e+01 5.000000000000e-02 
1.199999999997e+01 5.000000000000e-02 
1.299999999997e+01 5.000000000000e-02 
1.399999999996e+01 5.000000000000e-02 
1.499999999996e+01 5.000000000000e-02 
1.599999999996e+01 5.000000000000e-02 
1.699999999996e+01 5.000000000000e-02 
1.799999999995e+01 5.000000000000e-02 
1.899999999995e+01 5.000000000000e-02 
1.999999999995e+01 5.000000000000e-02 
2.099999999994e+01 5.000000000000e-02 
2.199999999994e+01 5.000000000000e-02 
2.299999999994e+01 5.000000000000e-02 
2.399999999994e+01 5.000000000000e-02 
2.499999999993e+01 5.000000000000e-02 
2.599999999993e+01 5.000000000000e-02 
2.699999999993e+01 5.000000000000e-02 
2.799999999992e+01 5.000000000000e-02 
2.899999999992e+01 5.000000000000e-02 
2.999999999992e+01 5.000000000000e-02 
3.099999999992e+01 5.000000000000e-02 
3.199999999991e+01 5.000000000000e-02 
3.299999999992e+01 5.000000000000e-02 
3.399999999992e+01 5.000000000000e-02 
3.499999999992e+01 5.000000000000e-02 
3.599999999992e+01 5.000000000000e-02 
3.699999999993e+01 5.000000000000e-02 
3.799999999993e+01 5.000000000000e-02 
3.899999999993e+01 5.000000000000e-02 
3.999999999993e+01 5.000000000000e-02 
4.099999999994e+01 5.000000000000e-02 
4.199999999994e+01 5.000000000000e-02 
4.299999999994e+01 5.000000000000e-02 
4.399999999995e+01 5.000000000000e-02 
4.499999999995e+01 5.000000000000e-02 
4.599999999995e+01 5.000000000000e-02 
4.699999999995e+01 5.000000000000e-02 
4.799999999996e+01 5.000000000000e-02 
4.899999999996e+01 5.000000000000e-02 
4.999999999996e+01 5.000000000000e-02 
5.099999999996e+01 5.000000000000e-02 
5.199999999997e+01 5.000000000000e-02 
5.299999999997e+01 5.000000000000e-02 
5.399999999997e+01 5.000000000000e-02 
5.499999999998e+01 5.000000000000e-02 
5.599999999998e+01 5.000000000000e-02 
5.699999999998e+01 5.000000000000e-02 
5.799999999998e+01 5.000000000000e-02 
5.899999999999e+01 5.000000000000e-02 
5.999999999999e+01 5.000000000000e-02 
6.099999999999e+01 5.000000000000e-02 
6.199999999999e+01 5.000000000000e-02 
6.300000000000e+01 5.000000000000e-02 
6.400000000000e+01 5.000000000000e-02 
 TITLE = "Profiles along polylines"
 VARIABLES = "DIST" "PRESSURE1" 
 ZONE T="TIME=1.000000000000e-06"
0.000000000000e+00 1.004764404256e+05 
1.000000000001e+00 1.004308445191e+05 
1.999999999998e+00 1.003981844718e+05 
2.999999999996e+00 1.004470844638e+05 
3.999999999993e+00 1.005165713768e+05 
4.999999999990e+00 1.005882570336e+05 
5.999999999987e+00 1.006702311612e+05 
6.999999999984e+00 1.007135697426e+05 
7.999999999981e+00 1.007861763232e+05 
8.999999999979e+00 1.008240744838e+05 
9.999999999976e+00 1.008332020269e+05 
1.099999999997e+01 1.008260607821e+05 
1.199999999997e+01 1.007784048194e+05 
1.299999999997e+01 1.008041617526e+05 
1.399999999996e+01 1.008966870509e+05 
1.499999999996e+01 1.009416133681e+05 
1.599999999996e+01 1.008727580829e+05 
1.699999999996e+01 1.007455647219e+05 
1.799999999995e+01 1.007001456553e+05 
1.899999999995e+01 1.007672547160e+05 
1.999999999995e+01 1.007845362367e+05 
2.099999999994e+01 1.007798062983e+05 
2.199999999994e+01 1.007066206665e+05 
2.299999999994e+01 1.006437800284e+05 
2.399999999994e+01 1.006315157563e+05 
2.499999999993e+01 1.005222722693e+05 
2.599999999993e+01 1.004468198643e+05 
2.699999999993e+01 1.004694626214e+05 
2.799999999992e+01 1.004644619301e+05 
2.899999999992e+01 1.003909471087e+05 
2.999999999992e+01 1.003375592214e+05 
3.099999999992e+01 1.003670571416e+05 
3.199999999991e+01 1.004143178148e+05 
3.299999999992e+01 1.004685007414e+05 
3.399999999992e+01 1.005768245529e+05 
3.499999999992e+01 1.006886444156e+05 
3.599999999992e+01 1.007097234756e+05 
3.699999999993e+01 1.006534960764e+05 
3.799999999993e+01 1.006024408616e+05 
3.899999999993e+01 1.005731646711e+05 
3.999999999993e+01 1.005070155410e+05 
4.099999999994e+01 1.004512431146e+05 
4.199999999994e+01 1.003804536478e+05 
4.299999999994e+01 1.003021256607e+05 
4.399999999995e+01 1.003017303855e+05 
4.499999999995e+01 1.003358541114e+05 
4.599999999995e+01 1.003976106773e+05 
4.699999999995e+01 1.004371709610e+05 
4.799999999996e+01 1.004198655334e+05 
4.899999999996e+01 1.003928603001e+05 
4.999999999996e+01 1.003949348320e+05 
5.099999999996e+01 1.004138232139e+05 
5.199999999997e+01 1.004382181306e+05 
5.299999999997e+01 1.005157680700e+05 
5.399999999997e+01 1.005469655512e+05 
5.499999999998e+01 1.005209769789e+05 
5.599999999998e+01 1.004205005847e+05 
5.699999999998e+01 1.002875350720e+05 
5.799999999998e+01 1.002452358919e+05 
5.899999999999e+01 1.002367483319e+05 
5.999999999999e+01 1.002472474891e+05 
6.099999999999e+01 1.002388216557e+05 
6.199999999999e+01 1.002505004143e+05 
6.300000000000e+01 1.002929193905e+05 
6.400000000000e+01 1.003094494876e+05 
 ZONE T="TIME=3.000000010000e+02"
0.000000000000e+00 1.002567488641e+05 
1.000000000001e+00 1.002579923693e+05 
1.999999999998e+00 1.002760088007e+05 
2.999999999996e+00 1.003307331197e+05 
3.999999999993e+00 1.004450429108e+05 
4.999999999990e+00 1.006139945958e+05 
5.999999999987e+00 1.008926196060e+05 
6.999999999984e+00 1.012159818905e+05 
7.999999999981e+00 1.018908477174e+05 
8.999999999979e+00 1.020197208925e+05 
9.999999999976e+00 1.018180654345e+05 
1.099999999997e+01 1.015395618867e+05 
1.199999999997e+01 1.011447044128e+05 
1.299999999997e+01 1.011452529148e+05 
1.399999999996e+01 1.015634594025e+05 
1.499999999996e+01 1.018989162127e+05 
1.599999999996e+01 1.014416216692e+05 
1.699999999996e+01 1.010633291758e+05 
1.799999999995e+01 1.010430476572e+05 
1.899999999995e+01 1.015229434999e+05 
1.999999999995e+01 1.013303491106e+05 
2.099999999994e+01 1.008358465709e+05 
2.199999999994e+01 1.006352751514e+05 
2.299999999994e+01 1.004923828838e+05 
2.399999999994e+01 1.003965864968e+05 
2.499999999993e+01 1.003259413378e+05 
2.599999999993e+01 1.002713450339e+05 
2.699999999993e+01 1.002300945723e+05 
2.799999999992e+01 1.002002400626e+05 
2.899999999992e+01 1.001803336519e+05 
2.999999999992e+01 1.001684285413e+05 
3.099999999992e+01 1.001640325655e+05 
3.199999999991e+01 1.001686410130e+05 
3.299999999992e+01 1.001881152068e+05 
3.399999999992e+01 1.002512637398e+05 
3.499999999992e+01 1.003745987905e+05 
3.599999999992e+01 1.004178411385e+05 
3.699999999993e+01 1.003519056477e+05 
3.799999999993e+01 1.003074244248e+05 
3.899999999993e+01 1.003234719275e+05 
3.999999999993e+01 1.002378023011e+05 
4.099999999994e+01 1.001633342494e+05 
4.199999999994e+01 1.001301871366e+05 
4.299999999994e+01 1.001096073048e+05 
4.399999999995e+01 1.000979014406e+05 
4.499999999995e+01 1.000901015866e+05 
4.599999999995e+01 1.000986635472e+05 
4.699999999995e+01 1.001068345479e+05 
4.799999999996e+01 1.000935081408e+05 
4.899999999996e+01 1.000923233981e+05 
4.999999999996e+01 1.001113181801e+05 
5.099999999996e+01 1.001489203130e+05 
5.199999999997e+01 1.002233038609e+05 
5.299999999997e+01 1.003743875492e+05 
5.399999999997e+01 1.004612492505e+05 
5.499999999998e+01 1.004245384599e+05 
5.599999999998e+01 1.002900522188e+05 
5.699999999998e+01 1.001903015683e+05 
5.799999999998e+01 1.001489353205e+05 
5.899999999999e+01 1.001233280693e+05 
5.999999999999e+01 1.001092395973e+05 
6.099999999999e+01 1.001029692154e+05 
6.199999999999e+01 1.001131238007e+05 
6.300000000000e+01 1.001479773322e+05 
6.400000000000e+01 1.001712478859e+05 
 ZONE T="TIME=6.000000010000e+02"
0.000000000000e+00 1.003512710460e+05 
1.000000000001e+00 1.003433144168e+05 
1.999999999998e+00 1.003428538621e+05 
2.999999999996e+00 1.003680812768e+05 
3.999999999993e+00 1.004649717852e+05 
4.999999999990e+00 1.006289967133e+05 
5.999999999987e+00 1.008905639981e+05 
6.999999999984e+00 1.012107507379e+05 
7.999999999981e+00 1.018884233517e+05 
8.999999999979e+00 1.019772790067e+05 
9.999999999976e+00 1.017015447821e+05 
1.099999999997e+01 1.014121145480e+05 
1.199999999997e+01 1.010125829521e+05 
1.299999999997e+01 1.009635417689e+05 
1.399999999996e+01 1.012483204753e+05 
1.499999999996e+01 1.014595879663e+05 
1.599999999996e+01 1.010586208669e+05 
1.699999999996e+01 1.007164990971e+05 
1.799999999995e+01 1.006153057213e+05 
1.899999999995e+01 1.006065143536e+05 
1.999999999995e+01 1.006220007239e+05 
2.099999999994e+01 1.006055967585e+05 
2.199999999994e+01 1.005429902126e+05 
2.299999999994e+01 1.004690766662e+05 
2.399999999994e+01 1.004135482049e+05 
2.499999999993e+01 1.003690062107e+05 
2.599999999993e+01 1.003347901628e+05 
2.699999999993e+01 1.003103045472e+05 
2.799999999992e+01 1.002928865051e+05 
2.899999999992e+01 1.002808083155e+05 
2.999999999992e+01 1.002732552091e+05 
3.099999999992e+01 1.002707850454e+05 
3.199999999991e+01 1.002763895241e+05 
3.299999999992e+01 1.002999923704e+05 
3.399999999992e+01 1.003904981752e+05 
3.499999999992e+01 1.005726903990e+05 
3.599999999992e+01 1.006026814008e+05 
3.699999999993e+01 1.004813063869e+05 
3.799999999993e+01 1.004363827609e+05 
3.899999999993e+01 1.003932893237e+05 
3.999999999993e+01 1.003334158615e+05 
4.099999999994e+01 1.003109561261e+05 
4.199999999994e+01 1.002700758942e+05 
4.299999999994e+01 1.002301309315e+05 
4.399999999995e+01 1.002057491191e+05 
4.499999999995e+01 1.001899553995e+05 
4.599999999995e+01 1.002115627093e+05 
4.699999999995e+01 1.002351008972e+05 
4.799999999996e+01 1.001964123624e+05 
4.899999999996e+01 1.001697994339e+05 
4.999999999996e+01 1.001831735048e+05 
5.099999999996e+01 1.002231330634e+05 
5.199999999997e+01 1.003154139053e+05 
5.299999999997e+01 1.005219588111e+05 
5.399999999997e+01 1.006567269487e+05 
5.499999999998e+01 1.006044550614e+05 
5.599999999998e+01 1.004055757623e+05 
5.699999999998e+01 1.002659177660e+05 
5.799999999998e+01 1.002092423353e+05 
5.899999999999e+01 1.001773029022e+05 
5.999999999999e+01 1.001603716329e+05 
6.099999999999e+01 1.001570971154e+05 
6.199999999999e+01 1.001814352104e+05 
6.300000000000e+01 1.002528701984e+05 
6.400000000000e+01 1.003005074843e+05 
 ZONE T="TIME=9.000000010000e+02"
0.000000000000e+00 1.002318529122e+05 
1.000000000001e+00 1.002381088883e+05 
1.999999999998e+00 1.002683724054e+05 
2.999999999996e+00 1.003405588938e+05 
3.999999999993e+00 1.004765169996e+05 
4.999999999990e+00 1.006695132802e+05 
5.999999999987e+00 1.009720435872e+05 
6.999999999984e+00 1.012840355473e+05 
7.999999999981e+00 1.019006375619e+05 
8.999999999979e+00 1.020485096622e+05 
9.999999999976e+00 1.019037306915e+05 
1.099999999997e+01 1.017195721409e+05 
1.199999999997e+01 1.013040717060e+05 
1.299999999997e+01 1.012275579588e+05 
1.399999999996e+01 1.016341770198e+05 
1.499999999996e+01 1.019565580505e+05 
1.599999999996e+01 1.015942380751e+05 
1.699999999996e+01 1.011870344589e+05 
1.799999999995e+01 1.010369084617e+05 
1.899999999995e+01 1.014181697231e+05 
1.999999999995e+01 1.011980104722e+05 
2.099999999994e+01 1.007305845761e+05 
2.199999999994e+01 1.005412343990e+05 
2.299999999994e+01 1.004097607437e+05 
2.399999999994e+01 1.003152717172e+05 
2.499999999993e+01 1.002502721029e+05 
2.599999999993e+01 1.002027876497e+05 
2.699999999993e+01 1.001687562541e+05 
2.799999999992e+01 1.001462710838e+05 
2.899999999992e+01 1.001341163232e+05 
2.999999999992e+01 1.001307273834e+05 
3.099999999992e+01 1.001358869134e+05 
3.199999999991e+01 1.001515542035e+05 
3.299999999992e+01 1.001908292712e+05 
3.399999999992e+01 1.002743028913e+05 
3.499999999992e+01 1.004133520982e+05 
3.599999999992e+01 1.004732834070e+05 
3.699999999993e+01 1.004444016192e+05 
3.799999999993e+01 1.004594974755e+05 
3.899999999993e+01 1.004506053849e+05 
3.999999999993e+01 1.003094358557e+05 
4.099999999994e+01 1.001943918053e+05 
4.199999999994e+01 1.001419201289e+05 
4.299999999994e+01 1.001101495861e+05 
4.399999999995e+01 1.000924352993e+05 
4.499999999995e+01 1.000843806498e+05 
4.599999999995e+01 1.000932603982e+05 
4.699999999995e+01 1.001149110898e+05 
4.799999999996e+01 1.001168788997e+05 
4.899999999996e+01 1.001044899736e+05 
4.999999999996e+01 1.001019994525e+05 
5.099999999996e+01 1.001238417156e+05 
5.199999999997e+01 1.001777094077e+05 
5.299999999997e+01 1.002866064532e+05 
5.399999999997e+01 1.003415881998e+05 
5.499999999998e+01 1.003128961942e+05 
5.599999999998e+01 1.002148365761e+05 
5.699999999998e+01 1.001379027968e+05 
5.799999999998e+01 1.001057227191e+05 
5.899999999999e+01 1.000859588565e+05 
5.999999999999e+01 1.000749453987e+05 
6.099999999999e+01 1.000695831012e+05 
6.199999999999e+01 1.000757558814e+05 
6.300000000000e+01 1.000971608222e+05 
6.400000000000e+01 1.001107200027e+05 
 ZONE T="TIME=1.200000001000e+03"
0.000000000000e+00 1.002318529122e+05 
1.000000000001e+00 1.002381088883e+05 
1.999999999998e+00 1.002683724054e+05 
2.999999999996e+00 1.003405588938e+05 
3.999999999993e+00 1.004765169996e+05 
4.999999999990e+00 1.006695132802e+05 
5.999999999987e+00 1.009720435872e+05 
6.999999999984e+00 1.012840355473e+05 
7.999999999981e+00 1.019006375619e+05 
8.999999999979e+00 1.020485096623e+05 
9.999999999976e+00 1.019037306915e+05 
1.099999999997e+01 1.017195721409e+05 
1.199999999997e+01 1.013040717060e+05 
1.299999999997e+01 1.012275579588e+05 
1.399999999996e+01 1.016341770198e+05 
1.499999999996e+01 1.019565580505e+05 
1.599999999996e+01 1.015942380751e+05 
1.699999999996e+01 1.011870344589e+05 
1.799999999995e+01 1.010369084617e+05 
1.899999999995e+01 1.014181697231e+05 
1.999999999995e+01 1.011980104722e+05 
2.099999999994e+01 1.007305845761e+05 
2.199999999994e+01 1.005412343990e+05 
2.299999999994e+01 1.004097607437e+05 
2.399999999994e+01 1.003152717172e+05 
2.499999999993e+01 1.002502721029e+05 
2.599999999993e+01 1.002027876497e+05 
2.699999999993e+01 1.001687562541e+05 
2.799999999992e+01 1.001462710838e+05 
2.899999999992e+01 1.001341163232e+05 
2.999999999992e+01 1.001307273834e+05 
3.099999999992e+01 1.001358869134e+05 
3.199999999991e+01 1.001515542035e+05 
3.299999999992e+01 1.001908292712e+05 
3.399999999992e+01 1.002743028913e+05 
3.499999999992e+01 1.004133520982e+05 
3.599999999992e+01 1.004732834070e+05 
3.699999999993e+01 1.004444016192e+05 
3.799999999993e+01 1.004594974755e+05 
3.899999999993e+01 1.004506053849e+05 
3.999999999993e+01 1.003094358557e+05 
4.099999999994e+01 1.001943918053e+05 
4.199999999994e+01 1.001419201289e+05 
4.299999999994e+01 1.001101495861e+05 
4.399999999995e+01 1.000924352993e+05 
4.499999999995e+01 1.000843806498e+05 
4.599999999995e+01 1.000932603982e+05 
4.699999999995e+01 1.001149110898e+05 
4.799999999996e+01 1.001168788997e+05 
4.899999999996e+01 1.001044899736e+05 
4.999999999996e+01 1.001019994525e+05 
5.099999999996e+01 1.001238417156e+05 
5.199999999997e+01 1.001777094077e+05 
5.299999999997e+01 1.002866064532e+05 
5.399999999997e+01 1.003415881998e+05 
5.499999999998e+01 1.003128961942e+05 
5.599999999998e+01 1.002148365761e+05 
5.699999999998e+01 1.001379027968e+05 
5.799999999998e+01 1.001057227191e+05 
5.899999999999e+01 1.000859588565e+05 
5.999999999999e+01 1.000749453987e+05 
6.099999999999e+01 1.000695831012e+05 
6.199999999999e+01 1.000757558814e+05 
6.300000000000e+01 1.000971608222e+05 
6.400000000000e+01 1.001107200027e+05 
 ZONE T="TIME=1.500000001000e+03"
0.000000000000e+00 1.002318529122e+05 
1.000000000001e+00 1.002381088883e+05 
1.999999999998e+00 1.002683724054e+05 
2.999999999996e+00 1.003405588938e+05 
3.999999999993e+00 1.004765169996e+05 
4.999999999990e+00 1.006695132802e+05 
5.999999999987e+00 1.009720435872e+05 
6.999999999984e+00 1.012840355473e+05 
7.999999999981e+00 1.019006375619e+05 
8.999999999979e+00 1.020485096622e+05 
9.999999999976e+00 1.019037306915e+05 
1.099999999997e+01 1.017195721409e+05 
1.199999999997e+01 1.013040717060e+05 
1.299999999997e+01 1.012275579588e+05 
1.399999999996e+01 1.016341770198e+05 
1.499999999996e+01 1.019565580505e+05 
1.599999999996e+01 1.015942380751e+05 
1.699999999996e+01 1.011870344589e+05 
1.799999999995e+01 1.010369084617e+05 
1.899999999995e+01 1.014181697231e+05 
1.999999999995e+01 1.011980104722e+05 
2.099999999994e+01 1.007305845761e+05 
2.199999999994e+01 1.005412343990e+05 
2.299999999994e+01 1.004097607437e+05 
2.399999999994e+01 1.003152717172e+05 
2.499999999993e+01 1.002502721029e+05 
2.599999999993e+01 1.002027876497e+05 
2.699999999993e+01 1.001687562541e+05 
2.799999999992e+01 1.001462710838e+05 
2.899999999992e+01 1.001341163232e+05 
2.999999999992e+01 1.001307273834e+05 
3.099999999992e+01 1.001358869134e+05 
3.199999999991e+01 1.001515542035e+05 
3.299999999992e+01 1.001908292712e+05 
3.399999999992e+01 1.002743028913e+05 
3.499999999992e+01 1.004133520982e+05 
3.599999999992e+01 1.004732834070e+05 
3.699999999993e+01 1.004444016192e+05 
3.799999999993e+01 1.004594974755e+05 
3.899999999993e+01 1.004506053849e+05 
3.999999999993e+01 1.003094358557e+05 
4.099999999994e+01 1.001943918053e+05 
4.199999999994e+01 1.001419201289e+05 
4.299999999994e+01 1.001101495861e+05 
4.399999999995e+01 1.000924352993e+05 
4.499999999995e+01 1.000843806498e+05 
4.599999999995e+01 1.000932603982e+05 
4.699999999995e+01 1.001149110898e+05 
4.799999999996e+01 1.001168788997e+05 
4.899999999996e+01 1.001044899736e+05 
4.999999999996e+01 1.001019994525e+05 
5.099999999996e+01 1.001238417156e+05 
5.199999999997e+01 1.001777094077e+05 
5.299999999997e+01 1.002866064532e+05 
5.399999999997e+01 1.003415881998e+05 
5.499999999998e+01 1.003128961942e+05 
5.599999999998e+01 1.002148365761e+05 
5.699999999998e+01 1.001379027968e+05 
5.799999999998e+01 1.001057227191e+05 
5.899999999999e+01 1.000859588565e+05 
5.999999999999e+01 1.000749453987e+05 
6.099999999999e+01 1.000695831012e+05 
6.199999999999e+01 1.000757558814e+05 
6.300000000000e+01 1.000971608222e+05 
6.400000000000e+01 1.001107200027e+05 
 ZONE T="TIME=1.800000001000e+03"
0.000000000000e+00 1.002318529122e+05 
1.000000000001e+00 1.002381088883e+05 
1.999999999998e+00 1.002683724054e+05 
2.999999999996e+00 1.003405588938e+05 
3.999999999993e+00 1.004765169996e+05 
4.999999999990e+00 1.006695132802e+05 
5.999999999987e+00 1.009720435872e+05 
6.999999999984e+00 1.012840355473e+05 
7.999999999981e+00 1.019006375619e+05 
8.999999999979e+00 1.020485096623e+05 
9.999999999976e+00 1.019037306915e+05 
1.099999999997e+01 1.017195721409e+05 
1.199999999997e+01 1.013040717060e+05 
1.299999999997e+01 1.012275579588e+05 
1.399999999996e+01 1.016341770198e+05 
1.499999999996e+01 1.019565580505e+05 
1.599999999996e+01 1.015942380751e+05 
1.699999999996e+01 1.011870344589e+05 
1.799999999995e+01 1.010369084617e+05 
1.899999999995e+01 1.014181697231e+05 
1.999999999995e+01 1.011980104722e+05 
2.099999999994e+01 1.007305845761e+05 
2.199999999994e+01 1.005412343990e+05 
2.299999999994e+01 1.004097607437e+05 
2.399999999994e+01 1.003152717172e+05 
2.499999999993e+01 1.002502721029e+05 
2.599999999993e+01 1.002027876497e+05 
2.699999999993e+01 1.001687562541e+05 
2.799999999992e+01 1.001462710838e+05 
2.899999999992e+01 1.001341163232e+05 
2.999999999992e+01 1.001307273834e+05 
3.099999999992e+01 1.001358869134e+05 
3.199999999991e+01 1.001515542035e+05 
3.299999999992e+01 1.001908292712e+05 
3.399999999992e+01 1.002743028913e+05 
3.499999999992e+01 1.004133520982e+05 
3.599999999992e+01 1.004732834070e+05 
3.699999999993e+01 1.004444016192e+05 
3.799999999993e+01 1.004594974755e+05 
3.899999999993e+01 1.004506053849e+05 
3.999999999993e+01 1.003094358557e+05 
4.099999999994e+01 1.001943918053e+05 
4.199999999994e+01 1.001419201289e+05 
4.299999999994e+01 1.001101495861e+05 
4.399999999995e+01 1.000924352993e+05 
4.499999999995e+01 1.000843806498e+05 
4.599999999995e+01 1.000932603982e+05 
4.699999999995e+01 1.001149110898e+05 
4.799999999996e+01 1.001168788997e+05 
4.899999999996e+01 1.001044899736e+05 
4.999999999996e+01 1.001019994525e+05 
5.099999999996e+01 1.001238417156e+05 
5.199999999997e+01 1.001777094077e+05 
5.299999999997e+01 1.002866064532e+05 
5.399999999997e+01 1.003415881998e+05 
5.499999999998e+01 1.003128961942e+05 
5.599999999998e+01 1.002148365761e+05 
5.699999999998e+01 1.001379027968e+05 
5.799999999998e+01 1.001057227191e+05 
5.899999999999e+01 1.000859588565e+05 
5.999999999999e+01 1.000749453987e+05 
6.099999999999e+01 1.000695831012e+05 
6.199999999999e+01 1.000757558814e+05 
6.300000000000e+01 1.000971608222e+05 
6.400000000000e+01 1.001107200027e+05 
 ZONE T="TIME=2.100000001000e+03"
0.000000000000e+00 1.002318529122e+05 
1.000000000001e+00 1.002381088883e+05 
1.999999999998e+00 1.002683724054e+05 
2.999999999996e+00 1.003405588938e+05 
3.999999999993e+00 1.004765169996e+05 
4.999999999990e+00 1.006695132802e+05 
5.999999999987e+00 1.009720435872e+05 
6.999999999984e+00 1.012840355473e+05 
7.999999999981e+00 1.019006375619e+05 
8.999999999979e+00 1.020485096623e+05 
9.999999999976e+00 1.019037306915e+05 
1.099999999997e+01 1.017195721409e+05 
1.199999999997e+01 1.013040717060e+05 
1.299999999997e+01 1.012275579588e+05 
1.399999999996e+01 1.016341770198e+05 
1.499999999996e+01 1.019565580505e+05 
1.599999999996e+01 1.015942380751e+05 
1.699999999996e+01 1.011870344589e+05 
1.799999999995e+01 1.010369084617e+05 
1.899999999995e+01 1.014181697231e+05 
1.999999999995e+01 1.011980104722e+05 
2.099999999994e+01 1.007305845761e+05 
2.199999999994e+01 1.005412343990e+05 
2.299999999994e+01 1.004097607437e+05 
2.399999999994e+01 1.003152717172e+05 
2.499999999993e+01 1.002502721029e+05 
2.599999999993e+01 1.002027876497e+05 
2.699999999993e+01 1.001687562541e+05 
2.799999999992e+01 1.001462710838e+05 
2.899999999992e+01 1.001341163232e+05 
2.999999999992e+01 1.001307273834e+05 
3.099999999992e+01 1.001358869134e+05 
3.199999999991e+01 1.001515542035e+05 
3.299999999992e+01 1.001908292712e+05 
3.399999999992e+01 1.002743028913e+05 
3.499999999992e+01 1.004133520982e+05 
3.599999999992e+01 1.004732834070e+05 
3.699999999993e+01 1.004444016192e+05 
3.799999999993e+01 1.004594974755e+05 
3.899999999993e+01 1.004506053849e+05 
3.999999999993e+01 1.003094358557e+05 
4.099999999994e+01 1.001943918053e+05 
4.199999999994e+01 1.001419201289e+05 
4.299999999994e+01 1.001101495861e+05 
4.399999999995e+01 1.000924352993e+05 
4.499999999995e+01 1.000843806498e+05 
4.599999999995e+01 1.000932603982e+05 
4.699999999995e+01 1.001149110898e+05 
4.799999999996e+01 1.001168788997e+05 
4.899999999996e+01 1.001044899736e+05 
4.999999999996e+01 1.001019994525e+05 
5.099999999996e+01 1.001238417156e+05 
5.199999999997e+01 1.001777094077e+05 
5.299999999997e+01 1.002866064532e+05 
5.399999999997e+01 1.003415881998e+05 
5.499999999998e+01 1.003128961942e+05 
5.599999999998e+01 1.002148365761e+05 
5.699999999998e+01 1.001379027968e+05 
5.799999999998e+01 1.001057227191e+05 
5.899999999999e+01 1.000859588565e+05 
5.999999999999e+01 1.000749453987e+05 
6.099999999999e+01 1.000695831012e+05 
6.199999999999e+01 1.000757558814e+05 
6.300000000000e+01 1.000971608222e+05 
6.400000000000e+01 1.001107200027e+05 
 ZONE T="TIME=2.400000001000e+03"
0.000000000000e+00 1.002318529122e+05 
1.000000000001e+00 1.002381088883e+05 
1.999999999998e+00 1.002683724054e+05 
2.999999999996e+00 1.003405588938e+05 
3.999999999993e+00 1.004765169996e+05 
4.999999999990e+00 1.006695132802e+05 
5.999999999987e+00 1.009720435872e+05 
6.999999999984e+00 1.012840355473e+05 
7.999999999981e+00 1.019006375619e+05 
8.999999999979e+00 1.020485096623e+05 
9.999999999976e+00 1.019037306915e+05 
1.099999999997e+01 1.017195721409e+05 
1.199999999997e+01 1.013040717060e+05 
1.299999999997e+01 1.012275579588e+05 
1.399999999996e+01 1.016341770198e+05 
1.499999999996e+01 1.019565580505e+05 
1.599999999996e+01 1.015942380751e+05 
1.699999999996e+01 1.011870344589e+05 
1.799999999995e+01 1.010369084617e+05 
1.899999999995e+01 1.014181697231e+05 
1.999999999995e+01 1.011980104722e+05 
2.099999999994e+01 1.007305845761e+05 
2.199999999994e+01 1.005412343990e+05 
2.299999999994e+01 1.004097607437e+05 
2.399999999994e+01 1.003152717172e+05 
2.499999999993e+01 1.002502721029e+05 
2.599999999993e+01 1.002027876497e+05 
2.699999999993e+01 1.001687562541e+05 
2.799999999992e+01 1.001462710838e+05 
2.899999999992e+01 1.001341163232e+05 
2.999999999992e+01 1.001307273834e+05 
3.099999999992e+01 1.001358869134e+05 
3.199999999991e+01 1.001515542035e+05 
3.299999999992e+01 1.001908292712e+05 
3.399999999992e+01 1.002743028913e+05 
3.499999999992e+01 1.004133520982e+05 
3.599999999992e+01 1.004732834070e+05 
3.699999999993e+01 1.004444016192e+05 
3.799999999993e+01 1.004594974755e+05 
3.899999999993e+01 1.004506053849e+05 
3.999999999993e+01 1.003094358557e+05 
4.099999999994e+01 1.001943918053e+05 
4.199999999994e+01 1.001419201289e+05 
4.299999999994e+01 1.001101495861e+05 
4.399999999995e+01 1.000924352993e+05 
4.499999999995e+01 1.000843806498e+05 
4.599999999995e+01 1.000932603982e+05 
4.699999999995e+01 1.001149110898e+05 
4.799999999996e+01 1.001168788997e+05 
4.899999999996e+01 1.001044899736e+05 
4.999999999996e+01 1.001019994525e+05 
5.099999999996e+01 1.001238417156e+05 
5.199999999997e+01 1.001777094077e+05 
5.299999999997e+01 1.002866064532e+05 
5.399999999997e+01 1.003415881998e+05 
5.499999999998e+01 1.003128961942e+05 
5.599999999998e+01 1.002148365761e+05 
5.699999999998e+01 1.001379027968e+05 
5.799999999998e+01 1.001057227191e+05 
5.899999999999e+01 1.000859588565e+05 
5.999999999999e+01 1.000749453987e+05 
6.099999999999e+01 1.000695831012e+05 
6.199999999999e+01 1.000757558814e+05 
6.300000000000e+01 1.000971608222e+05 
6.400000000000e+01 1.001107200027e+05 
 ZONE T="TIME=2.700000001000e+03"
0.000000000000e+00 1.002318529122e+05 
1.000000000001e+00 1.002381088883e+05 
1.999999999998e+00 1.002683724054e+05 
2.999999999996e+00 1.003405588938e+05 
3.999999999993e+00 1.004765169996e+05 
4.999999999990e+00 1.006695132802e+05 
5.999999999987e+00 1.009720435872e+05 
6.999999999984e+00 1.012840355473e+05 
7.999999999981e+00 1.019006375619e+05 
8.999999999979e+00 1.020485096622e+05 
9.999999999976e+00 1.019037306915e+05 
1.099999999997e+01 1.017195721409e+05 
1.199999999997e+01 1.013040717060e+05 
1.299999999997e+01 1.012275579588e+05 
1.399999999996e+01 1.016341770198e+05 
1.499999999996e+01 1.019565580505e+05 
1.599999999996e+01 1.015942380751e+05 
1.699999999996e+01 1.011870344589e+05 
1.799999999995e+01 1.010369084617e+05 
1.899999999995e+01 1.014181697231e+05 
1.999999999995e+01 1.011980104722e+05 
2.099999999994e+01 1.007305845761e+05 
2.199999999994e+01 1.005412343990e+05 
2.299999999994e+01 1.004097607437e+05 
2.399999999994e+01 1.003152717172e+05 
2.499999999993e+01 1.002502721029e+05 
2.599999999993e+01 1.002027876497e+05 
2.699999999993e+01 1.001687562541e+05 
2.799999999992e+01 1.001462710838e+05 
2.899999999992e+01 1.001341163232e+05 
2.999999999992e+01 1.001307273834e+05 
3.099999999992e+01 1.001358869134e+05 
3.199999999991e+01 1.001515542035e+05 
3.299999999992e+01 1.001908292712e+05 
3.399999999992e+01 1.002743028913e+05 
3.499999999992e+01 1.004133520982e+05 
3.599999999992e+01 1.004732834070e+05 
3.699999999993e+01 1.004444016192e+05 
3.799999999993e+01 1.004594974755e+05 
3.899999999993e+01 1.004506053849e+05 
3.999999999993e+01 1.003094358557e+05 
4.099999999994e+01 1.001943918053e+05 
4.199999999994e+01 1.001419201289e+05 
4.299999999994e+01 1.001101495861e+05 
4.399999999995e+01 1.000924352993e+05 
4.499999999995e+01 1.000843806498e+05 
4.599999999995e+01 1.000932603982e+05 
4.699999999995e+01 1.001149110898e+05 
4.799999999996e+01 1.001168788997e+05 
4.899999999996e+01 1.001044899736e+05 
4.999999999996e+01 1.001019994525e+05 
5.099999999996e+01 1.001238417156e+05 
5.199999999997e+01 1.001777094077e+05 
5.299999999997e+01 1.002866064532e+05 
5.399999999997e+01 1.003415881998e+05 
5.499999999998e+01 1.003128961942e+05 
5.599999999998e+01 1.002148365761e+05 
5.699999999998e+01 1.001379027968e+05 
5.799999999998e+01 1.001057227191e+05 
5.899999999999e+01 1.000859588565e+05 
5.999999999999e+01 1.000749453987e+05 
6.099999999999e+01 1.000695831012e+05 
6.199999999999e+01 1.000757558814e+05 
6.300000000000e+01 1.000971608222e+05 
6.400000000000e+01 1.001107200027e+05 
 ZONE T="TIME=3.000000001000e+03"
0.000000000000e+00 1.002318529122e+05 
1.000000000001e+00 1.002381088883e+05 
1.999999999998e+00 1.002683724054e+05 
2.999999999996e+00 1.003405588938e+05 
3.999999999993e+00 1.004765169996e+05 
4.999999999990e+00 1.006695132802e+05 
5.999999999987e+00 1.009720435872e+05 
6.999999999984e+00 1.012840355473e+05 
7.999999999981e+00 1.019006375619e+05 
8.999999999979e+00 1.020485096623e+05 
9.999999999976e+00 1.019037306915e+05 
1.099999999997e+01 1.017195721409e+05 
1.199999999997e+01 1.013040717060e+05 
1.299999999997e+01 1.012275579588e+05 
1.399999999996e+01 1.016341770198e+05 
1.499999999996e+01 1.019565580505e+05 
1.599999999996e+01 1.015942380751e+05 
1.699999999996e+01 1.011870344589e+05 
1.799999999995e+01 1.010369084617e+05 
1.899999999995e+01 1.014181697231e+05 