 TITLE = "Profiles along polylines"
 VARIABLES = "DIST" "PRESSURE1" 
 ZONE T="TIME=0.000000000000e+00"
0.000000000000e+00 0.000000000000e+00 
9.999999999972e-01 0.000000000000e+00 
1.999999999994e+00 0.000000000000e+00 
2.999999999992e+00 0.000000000000e+00 
3.999999999989e+00 0.000000000000e+00 
4.999999999986e+00 0.000000000000e+00 
5.999999999983e+00 0.000000000000e+00 
6.999999999981e+00 0.000000000000e+00 
7.999999999978e+00 0.000000000000e+00 
8.999999999975e+00 0.000000000000e+00 
9.999999999972e+00 0.000000000000e+00 
1.099999999997e+01 0.000000000000e+00 
1.199999999997e+01 0.000000000000e+00 
1.299999999996e+01 0.000000000000e+00 
1.399999999996e+01 0.000000000000e+00 
1.499999999996e+01 0.000000000000e+00 
1.599999999996e+01 0.000000000000e+00 
1.699999999995e+01 0.000000000000e+00 
1.799999999995e+01 0.000000000000e+00 
1.899999999995e+01 0.000000000000e+00 
1.999999999994e+01 0.000000000000e+00 
2.099999999994e+01 0.000000000000e+00 
2.199999999994e+01 0.000000000000e+00 
2.299999999994e+01 0.000000000000e+00 
2.399999999993e+01 0.000000000000e+00 
2.499999999993e+01 0.000000000000e+00 
2.599999999993e+01 0.000000000000e+00 
2.699999999993e+01 0.000000000000e+00 
2.799999999992e+01 0.000000000000e+00 
2.899999999992e+01 0.000000000000e+00 
2.999999999992e+01 0.000000000000e+00 
3.099999999991e+01 0.000000000000e+00 
3.199999999991e+01 0.000000000000e+00 
3.299999999991e+01 0.000000000000e+00 
3.399999999992e+01 0.000000000000e+00 
3.499999999992e+01 0.000000000000e+00 
3.599999999992e+01 0.000000000000e+00 
3.699999999993e+01 0.000000000000e+00 
3.799999999993e+01 0.000000000000e+00 
3.899999999993e+01 0.000000000000e+00 
3.999999999993e+01 0.000000000000e+00 
4.099999999994e+01 0.000000000000e+00 
4.199999999994e+01 0.000000000000e+00 
4.299999999994e+01 0.000000000000e+00 
4.399999999994e+01 0.000000000000e+00 
4.499999999995e+01 0.000000000000e+00 
4.599999999995e+01 0.000000000000e+00 
4.699999999995e+01 0.000000000000e+00 
4.799999999996e+01 0.000000000000e+00 
4.899999999996e+01 0.000000000000e+00 
4.999999999996e+01 0.000000000000e+00 
5.099999999996e+01 0.000000000000e+00 
5.199999999997e+01 0.000000000000e+00 
5.299999999997e+01 0.000000000000e+00 
5.399999999997e+01 0.000000000000e+00 
5.499999999998e+01 0.000000000000e+00 
5.599999999998e+01 0.000000000000e+00 
5.699999999998e+01 0.000000000000e+00 
5.799999999998e+01 0.000000000000e+00 
5.899999999999e+01 0.000000000000e+00 
5.999999999999e+01 0.000000000000e+00 
6.099999999999e+01 0.000000000000e+00 
6.199999999999e+01 0.000000000000e+00 
6.300000000000e+01 0.000000000000e+00 
6.400000000000e+01 0.000000000000e+00 
 TITLE = "Profiles along polylines"
 VARIABLES = "DIST" "PRESSURE1" 
 ZONE T="TIME=1.000000000000e-06"
0.000000000000e+00 4.896564478233e+06 
9.999999999972e-01 4.896573561868e+06 
1.999999999994e+00 4.896590094406e+06 
2.999999999992e+00 4.896613685663e+06 
3.999999999989e+00 4.896639824986e+06 
4.999999999986e+00 4.896655824612e+06 
5.999999999983e+00 4.896668740651e+06 
6.999999999981e+00 4.896680237662e+06 
7.999999999978e+00 4.896693513184e+06 
8.999999999975e+00 4.896698039232e+06 
9.999999999972e+00 4.896695532631e+06 
1.099999999997e+01 4.896681147651e+06 
1.199999999997e+01 4.896655037190e+06 
1.299999999996e+01 4.896632443263e+06 
1.399999999996e+01 4.896600198382e+06 
1.499999999996e+01 4.896582493500e+06 
1.599999999996e+01 4.896570612455e+06 
1.699999999995e+01 4.896553032411e+06 
1.799999999995e+01 4.896535182368e+06 
1.899999999995e+01 4.896510843359e+06 
1.999999999994e+01 4.896496084879e+06 
2.099999999994e+01 4.896488920824e+06 
2.199999999994e+01 4.896489167591e+06 
2.299999999994e+01 4.896493736181e+06 
2.399999999993e+01 4.896497418553e+06 
2.499999999993e+01 4.896504142324e+06 
2.599999999993e+01 4.896501029957e+06 
2.699999999993e+01 4.896497244770e+06 
2.799999999992e+01 4.896497572462e+06 
2.899999999992e+01 4.896491059273e+06 
2.999999999992e+01 4.896478474892e+06 
3.099999999991e+01 4.896463030865e+06 
3.199999999991e+01 4.896451004843e+06 
3.299999999991e+01 4.896440408581e+06 
3.399999999992e+01 4.896432687891e+06 
3.499999999992e+01 4.896419856932e+06 
3.599999999992e+01 4.896393851057e+06 
3.699999999993e+01 4.896374157846e+06 
3.799999999993e+01 4.896352894907e+06 
3.899999999993e+01 4.896311838241e+06 
3.999999999993e+01 4.896265915314e+06 
4.099999999994e+01 4.896218763307e+06 
4.199999999994e+01 4.896149770218e+06 
4.299999999994e+01 4.896097264494e+06 
4.399999999994e+01 4.896090474135e+06 
4.499999999995e+01 4.896101052476e+06 
4.599999999995e+01 4.896121418186e+06 
4.699999999995e+01 4.896180550992e+06 
4.799999999996e+01 4.896217739235e+06 
4.899999999996e+01 4.896247037915e+06 
4.999999999996e+01 4.896266547458e+06 
5.099999999996e+01 4.896291294530e+06 
5.199999999997e+01 4.896320380853e+06 
5.299999999997e+01 4.896349459830e+06 
5.399999999997e+01 4.896375965759e+06 
5.499999999998e+01 4.896406193776e+06 
5.599999999998e+01 4.896441764474e+06 
5.699999999998e+01 4.896468481901e+06 
5.799999999998e+01 4.896479201850e+06 
5.899999999999e+01 4.896497160297e+06 
5.999999999999e+01 4.896520148134e+06 
6.099999999999e+01 4.896532384977e+06 
6.199999999999e+01 4.896545174747e+06 
6.300000000000e+01 4.896562321443e+06 
6.400000000000e+01 4.896568002950e+06 
 ZONE T="TIME=3.000000010000e+02"
0.000000000000e+00 4.896564478233e+06 
9.999999999972e-01 4.896573561869e+06 
1.999999999994e+00 4.896590094406e+06 
2.999999999992e+00 4.896613685663e+06 
3.999999999989e+00 4.896639824986e+06 
4.999999999986e+00 4.896655824612e+06 
5.999999999983e+00 4.896668740651e+06 
6.999999999981e+00 4.896680237662e+06 
7.999999999978e+00 4.896693513184e+06 
8.999999999975e+00 4.896698039232e+06 
9.999999999972e+00 4.896695532631e+06 
1.099999999997e+01 4.896681147651e+06 
1.199999999997e+01 4.896655037190e+06 
1.299999999996e+01 4.896632443264e+06 
1.399999999996e+01 4.896600198382e+06 
1.499999999996e+01 4.896582493501e+06 
1.599999999996e+01 4.896570612455e+06 
1.699999999995e+01 4.896553032411e+06 
1.799999999995e+01 4.896535182368e+06 
1.899999999995e+01 4.896510843359e+06 
1.999999999994e+01 4.896496084880e+06 
2.099999999994e+01 4.896488920825e+06 
2.199999999994e+01 4.896489167591e+06 
2.299999999994e+01 4.896493736181e+06 
2.399999999993e+01 4.896497418553e+06 
2.499999999993e+01 4.896504142324e+06 
2.599999999993e+01 4.896501029958e+06 
2.699999999993e+01 4.896497244770e+06 
2.799999999992e+01 4.896497572462e+06 
2.899999999992e+01 4.896491059273e+06 
2.999999999992e+01 4.896478474893e+06 
3.099999999991e+01 4.896463030865e+06 
3.199999999991e+01 4.896451004843e+06 
3.299999999991e+01 4.896440408581e+06 
3.399999999992e+01 4.896432687891e+06 
3.499999999992e+01 4.896419856932e+06 
3.599999999992e+01 4.896393851058e+06 
3.699999999993e+01 4.896374157846e+06 
3.799999999993e+01 4.896352894908e+06 
3.899999999993e+01 4.896311838241e+06 
3.999999999993e+01 4.896265915314e+06 
4.099999999994e+01 4.896218763307e+06 
4.199999999994e+01 4.896149770218e+06 
4.299999999994e+01 4.896097264494e+06 
4.399999999994e+01 4.896090474135e+06 
4.499999999995e+01 4.896101052476e+06 
4.599999999995e+01 4.896121418186e+06 
4.699999999995e+01 4.896180550992e+06 
4.799999999996e+01 4.896217739235e+06 
4.899999999996e+01 4.896247037915e+06 
4.999999999996e+01 4.896266547458e+06 
5.099999999996e+01 4.896291294531e+06 
5.199999999997e+01 4.896320380854e+06 
5.299999999997e+01 4.896349459831e+06 
5.399999999997e+01 4.896375965759e+06 
5.499999999998e+01 4.896406193776e+06 
5.599999999998e+01 4.896441764474e+06 
5.699999999998e+01 4.896468481902e+06 
5.799999999998e+01 4.896479201851e+06 
5.899999999999e+01 4.896497160297e+06 
5.999999999999e+01 4.896520148134e+06 
6.099999999999e+01 4.896532384977e+06 
6.199999999999e+01 4.896545174747e+06 
6.300000000000e+01 4.896562321444e+06 
6.400000000000e+01 4.896568002951e+06 
 ZONE T="TIME=6.000000010000e+02"
0.000000000000e+00 4.896564478233e+06 
9.999999999972e-01 4.896573561868e+06 
1.999999999994e+00 4.896590094406e+06 
2.999999999992e+00 4.896613685662e+06 
3.999999999989e+00 4.896639824985e+06 
4.999999999986e+00 4.896655824612e+06 
5.999999999983e+00 4.896668740651e+06 
6.999999999981e+00 4.896680237661e+06 
7.999999999978e+00 4.896693513184e+06 
8.999999999975e+00 4.896698039231e+06 
9.999999999972e+00 4.896695532630e+06 
1.099999999997e+01 4.896681147651e+06 
1.199999999997e+01 4.896655037189e+06 
1.299999999996e+01 4.896632443263e+06 
1.399999999996e+01 4.896600198381e+06 
1.499999999996e+01 4.896582493500e+06 
1.599999999996e+01 4.896570612455e+06 
1.699999999995e+01 4.896553032410e+06 
1.799999999995e+01 4.896535182367e+06 
1.899999999995e+01 4.896510843359e+06 
1.999999999994e+01 4.896496084879e+06 
2.099999999994e+01 4.896488920824e+06 
2.199999999994e+01 4.896489167590e+06 
2.299999999994e+01 4.896493736181e+06 
2.399999999993e+01 4.896497418552e+06 
2.499999999993e+01 4.896504142324e+06 
2.599999999993e+01 4.896501029957e+06 
2.699999999993e+01 4.896497244770e+06 
2.799999999992e+01 4.896497572461e+06 
2.899999999992e+01 4.896491059273e+06 
2.999999999992e+01 4.896478474892e+06 
3.099999999991e+01 4.896463030864e+06 
3.199999999991e+01 4.896451004843e+06 
3.299999999991e+01 4.896440408580e+06 
3.399999999992e+01 4.896432687890e+06 
3.499999999992e+01 4.896419856932e+06 
3.599999999992e+01 4.896393851057e+06 
3.699999999993e+01 4.896374157845e+06 
3.799999999993e+01 4.896352894907e+06 
3.899999999993e+01 4.896311838240e+06 
3.999999999993e+01 4.896265915313e+06 
4.099999999994e+01 4.896218763306e+06 
4.199999999994e+01 4.896149770217e+06 
4.299999999994e+01 4.896097264493e+06 
4.399999999994e+01 4.896090474135e+06 
4.499999999995e+01 4.896101052475e+06 
4.599999999995e+01 4.896121418185e+06 
4.699999999995e+01 4.896180550992e+06 
4.799999999996e+01 4.896217739234e+06 
4.899999999996e+01 4.896247037915e+06 
4.999999999996e+01 4.896266547457e+06 
5.099999999996e+01 4.896291294530e+06 
5.199999999997e+01 4.896320380853e+06 
5.299999999997e+01 4.896349459830e+06 
5.399999999997e+01 4.896375965759e+06 
5.499999999998e+01 4.896406193775e+06 
5.599999999998e+01 4.896441764473e+06 
5.699999999998e+01 4.896468481901e+06 
5.799999999998e+01 4.896479201850e+06 
5.899999999999e+01 4.896497160296e+06 
5.999999999999e+01 4.896520148133e+06 
6.099999999999e+01 4.896532384976e+06 
6.199999999999e+01 4.896545174746e+06 
6.300000000000e+01 4.896562321443e+06 
6.400000000000e+01 4.896568002950e+06 
 ZONE T="TIME=9.000000010000e+02"
0.000000000000e+00 4.896564478233e+06 
9.999999999972e-01 4.896573561868e+06 
1.999999999994e+00 4.896590094406e+06 
2.999999999992e+00 4.896613685662e+06 
3.999999999989e+00 4.896639824986e+06 
4.999999999986e+00 4.896655824612e+06 
5.999999999983e+00 4.896668740651e+06 
6.999999999981e+00 4.896680237661e+06 
7.999999999978e+00 4.896693513184e+06 
8.999999999975e+00 4.896698039232e+06 
9.999999999972e+00 4.896695532630e+06 
1.099999999997e+01 4.896681147651e+06 
1.199999999997e+01 4.896655037189e+06 
1.299999999996e+01 4.896632443263e+06 
1.399999999996e+01 4.896600198381e+06 
1.499999999996e+01 4.896582493500e+06 
1.599999999996e+01 4.896570612455e+06 
1.699999999995e+01 4.896553032410e+06 
1.799999999995e+01 4.896535182368e+06 
1.899999999995e+01 4.896510843359e+06 
1.999999999994e+01 4.896496084879e+06 
2.099999999994e+01 4.896488920824e+06 
2.199999999994e+01 4.896489167591e+06 
2.299999999994e+01 4.896493736181e+06 
2.399999999993e+01 4.896497418553e+06 
2.499999999993e+01 4.896504142324e+06 
2.599999999993e+01 4.896501029957e+06 
2.699999999993e+01 4.896497244770e+06 
2.799999999992e+01 4.896497572461e+06 
2.899999999992e+01 4.896491059273e+06 
2.999999999992e+01 4.896478474892e+06 
3.099999999991e+01 4.896463030864e+06 
3.199999999991e+01 4.896451004843e+06 
3.299999999991e+01 4.896440408580e+06 
3.399999999992e+01 4.896432687891e+06 
3.499999999992e+01 4.896419856932e+06 
3.599999999992e+01 4.896393851057e+06 
3.699999999993e+01 4.896374157846e+06 
3.799999999993e+01 4.896352894907e+06 
3.899999999993e+01 4.896311838240e+06 
3.999999999993e+01 4.896265915313e+06 
4.099999999994e+01 4.896218763307e+06 
4.199999999994e+01 4.896149770217e+06 
4.299999999994e+01 4.896097264494e+06 
4.399999999994e+01 4.896090474135e+06 
4.499999999995e+01 4.896101052476e+06 
4.599999999995e+01 4.896121418185e+06 
4.699999999995e+01 4.896180550992e+06 
4.799999999996e+01 4.896217739234e+06 
4.899999999996e+01 4.896247037915e+06 
4.999999999996e+01 4.896266547458e+06 
5.099999999996e+01 4.896291294530e+06 
5.199999999997e+01 4.896320380853e+06 
5.299999999997e+01 4.896349459830e+06 
5.399999999997e+01 4.896375965759e+06 
5.499999999998e+01 4.896406193776e+06 
5.599999999998e+01 4.896441764474e+06 
5.699999999998e+01 4.896468481901e+06 
5.799999999998e+01 4.896479201850e+06 
5.899999999999e+01 4.896497160296e+06 
5.999999999999e+01 4.896520148134e+06 
6.099999999999e+01 4.896532384977e+06 
6.199999999999e+01 4.896545174746e+06 
6.300000000000e+01 4.896562321443e+06 
6.400000000000e+01 4.896568002950e+06 
 ZONE T="TIME=1.200000001000e+03"
0.000000000000e+00 4.896564478233e+06 
9.999999999972e-01 4.896573561869e+06 
1.999999999994e+00 4.896590094406e+06 
2.999999999992e+00 4.896613685663e+06 
3.999999999989e+00 4.896639824986e+06 
4.999999999986e+00 4.896655824612e+06 
5.999999999983e+00 4.896668740651e+06 
6.999999999981e+00 4.896680237662e+06 
7.999999999978e+00 4.896693513184e+06 
8.999999999975e+00 4.896698039232e+06 
9.999999999972e+00 4.896695532631e+06 
1.099999999997e+01 4.896681147651e+06 
1.199999999997e+01 4.896655037190e+06 
1.299999999996e+01 4.896632443264e+06 
1.399999999996e+01 4.896600198382e+06 
1.499999999996e+01 4.896582493501e+06 
1.599999999996e+01 4.896570612455e+06 
1.699999999995e+01 4.896553032411e+06 
1.799999999995e+01 4.896535182368e+06 
1.899999999995e+01 4.896510843359e+06 
1.999999999994e+01 4.896496084880e+06 
2.099999999994e+01 4.896488920825e+06 
2.199999999994e+01 4.896489167591e+06 
2.299999999994e+01 4.896493736181e+06 
2.399999999993e+01 4.896497418553e+06 
2.499999999993e+01 4.896504142324e+06 
2.599999999993e+01 4.896501029957e+06 
2.699999999993e+01 4.896497244770e+06 
2.799999999992e+01 4.896497572462e+06 
2.899999999992e+01 4.896491059273e+06 
2.999999999992e+01 4.896478474892e+06 
3.099999999991e+01 4.896463030865e+06 
3.199999999991e+01 4.896451004843e+06 
3.299999999991e+01 4.896440408581e+06 
3.399999999992e+01 4.896432687891e+06 
3.499999999992e+01 4.896419856932e+06 
3.599999999992e+01 4.896393851057e+06 
3.699999999993e+01 4.896374157846e+06 
3.799999999993e+01 4.896352894908e+06 
3.899999999993e+01 4.896311838241e+06 
3.999999999993e+01 4.896265915314e+06 
4.099999999994e+01 4.896218763307e+06 
4.199999999994e+01 4.896149770218e+06 
4.299999999994e+01 4.896097264494e+06 
4.399999999994e+01 4.896090474135e+06 
4.499999999995e+01 4.896101052476e+06 
4.599999999995e+01 4.896121418186e+06 
4.699999999995e+01 4.896180550992e+06 
4.799999999996e+01 4.896217739235e+06 
4.899999999996e+01 4.896247037915e+06 
4.999999999996e+01 4.896266547458e+06 
5.099999999996e+01 4.896291294531e+06 
5.199999999997e+01 4.896320380854e+06 
5.299999999997e+01 4.896349459830e+06 
5.399999999997e+01 4.896375965759e+06 
5.499999999998e+01 4.896406193776e+06 
5.599999999998e+01 4.896441764474e+06 
5.699999999998e+01 4.896468481902e+06 
5.799999999998e+01 4.896479201851e+06 
5.899999999999e+01 4.896497160297e+06 
5.999999999999e+01 4.896520148134e+06 
6.099999999999e+01 4.896532384977e+06 
6.199999999999e+01 4.896545174747e+06 
6.300000000000e+01 4.896562321444e+06 
6.400000000000e+01 4.896568002951e+06 
 ZONE T="TIME=1.500000001000e+03"
0.000000000000e+00 4.896564478233e+06 
9.999999999972e-01 4.896573561868e+06 
1.999999999994e+00 4.896590094406e+06 
2.999999999992e+00 4.896613685663e+06 
3.999999999989e+00 4.896639824986e+06 
4.999999999986e+00 4.896655824612e+06 
5.999999999983e+00 4.896668740651e+06 
6.999999999981e+00 4.896680237662e+06 
7.999999999978e+00 4.896693513184e+06 
8.999999999975e+00 4.896698039232e+06 
9.999999999972e+00 4.896695532631e+06 
1.099999999997e+01 4.896681147651e+06 
1.199999999997e+01 4.896655037190e+06 
1.299999999996e+01 4.896632443263e+06 
1.399999999996e+01 4.896600198382e+06 
1.499999999996e+01 4.896582493500e+06 
1.599999999996e+01 4.896570612455e+06 
1.699999999995e+01 4.896553032411e+06 
1.799999999995e+01 4.896535182368e+06 
1.899999999995e+01 4.896510843359e+06 
1.999999999994e+01 4.896496084879e+06 
2.099999999994e+01 4.896488920824e+06 
2.199999999994e+01 4.896489167591e+06 
2.299999999994e+01 4.896493736181e+06 
2.399999999993e+01 4.896497418553e+06 
2.499999999993e+01 4.896504142324e+06 
2.599999999993e+01 4.896501029957e+06 
2.699999999993e+01 4.896497244770e+06 
2.799999999992e+01 4.896497572462e+06 
2.899999999992e+01 4.896491059273e+06 
2.999999999992e+01 4.896478474892e+06 
3.099999999991e+01 4.896463030865e+06 
3.199999999991e+01 4.896451004843e+06 
3.299999999991e+01 4.896440408580e+06 
3.399999999992e+01 4.896432687891e+06 
3.499999999992e+01 4.896419856932e+06 
3.599999999992e+01 4.896393851057e+06 
3.699999999993e+01 4.896374157846e+06 
3.799999999993e+01 4.896352894907e+06 
3.899999999993e+01 4.896311838241e+06 
3.999999999993e+01 4.896265915313e+06 
4.099999999994e+01 4.896218763307e+06 
4.199999999994e+01 4.896149770218e+06 
4.299999999994e+01 4.896097264494e+06 
4.399999999994e+01 4.896090474135e+06 
4.499999999995e+01 4.896101052476e+06 
4.599999999995e+01 4.896121418186e+06 
4.699999999995e+01 4.896180550992e+06 
4.799999999996e+01 4.896217739235e+06 
4.899999999996e+01 4.896247037915e+06 
4.999999999996e+01 4.896266547458e+06 
5.099999999996e+01 4.896291294530e+06 
5.199999999997e+01 4.896320380853e+06 
5.299999999997e+01 4.896349459830e+06 
5.399999999997e+01 4.896375965759e+06 
5.499999999998e+01 4.896406193776e+06 
5.599999999998e+01 4.896441764474e+06 
5.699999999998e+01 4.896468481901e+06 
5.799999999998e+01 4.896479201850e+06 
5.899999999999e+01 4.896497160296e+06 
5.999999999999e+01 4.896520148134e+06 
6.099999999999e+01 4.896532384977e+06 
6.199999999999e+01 4.896545174746e+06 
6.300000000000e+01 4.896562321443e+06 
6.400000000000e+01 4.896568002950e+06 
 ZONE T="TIME=1.800000001000e+03"
0.000000000000e+00 4.896564478233e+06 
9.999999999972e-01 4.896573561868e+06 
1.999999999994e+00 4.896590094406e+06 
2.999999999992e+00 4.896613685663e+06 
3.999999999989e+00 4.896639824986e+06 
4.999999999986e+00 4.896655824612e+06 
5.999999999983e+00 4.896668740651e+06 
6.999999999981e+00 4.896680237662e+06 
7.999999999978e+00 4.896693513184e+06 
8.999999999975e+00 4.896698039232e+06 
9.999999999972e+00 4.896695532631e+06 
1.099999999997e+01 4.896681147651e+06 
1.199999999997e+01 4.896655037190e+06 
1.299999999996e+01 4.896632443263e+06 
1.399999999996e+01 4.896600198382e+06 
1.499999999996e+01 4.896582493500e+06 
1.599999999996e+01 4.896570612455e+06 
1.699999999995e+01 4.896553032411e+06 
1.799999999995e+01 4.896535182368e+06 
1.899999999995e+01 4.896510843359e+06 
1.999999999994e+01 4.896496084879e+06 
2.099999999994e+01 4.896488920824e+06 
2.199999999994e+01 4.896489167591e+06 
2.299999999994e+01 4.896493736181e+06 
2.399999999993e+01 4.896497418553e+06 
2.499999999993e+01 4.896504142324e+06 
2.599999999993e+01 4.896501029957e+06 
2.699999999993e+01 4.896497244770e+06 
2.799999999992e+01 4.896497572462e+06 
2.899999999992e+01 4.896491059273e+06 
2.999999999992e+01 4.896478474892e+06 
3.099999999991e+01 4.896463030865e+06 
3.199999999991e+01 4.896451004843e+06 
3.299999999991e+01 4.896440408580e+06 
3.399999999992e+01 4.896432687891e+06 
3.499999999992e+01 4.896419856932e+06 
3.599999999992e+01 4.896393851057e+06 
3.699999999993e+01 4.896374157846e+06 
3.799999999993e+01 4.896352894907e+06 
3.899999999993e+01 4.896311838241e+06 
3.999999999993e+01 4.896265915314e+06 
4.099999999994e+01 4.896218763307e+06 
4.199999999994e+01 4.896149770218e+06 
4.299999999994e+01 4.896097264494e+06 
4.399999999994e+01 4.896090474135e+06 
4.499999999995e+01 4.896101052476e+06 
4.599999999995e+01 4.896121418186e+06 
4.699999999995e+01 4.896180550992e+06 
4.799999999996e+01 4.896217739235e+06 
4.899999999996e+01 4.896247037915e+06 
4.999999999996e+01 4.896266547458e+06 
5.099999999996e+01 4.896291294530e+06 
5.199999999997e+01 4.896320380853e+06 
5.299999999997e+01 4.896349459830e+06 
5.399999999997e+01 4.896375965759e+06 
5.499999999998e+01 4.896406193776e+06 
5.599999999998e+01 4.896441764474e+06 
5.699999999998e+01 4.896468481901e+06 
5.799999999998e+01 4.896479201850e+06 
5.899999999999e+01 4.896497160297e+06 
5.999999999999e+01 4.896520148134e+06 
6.099999999999e+01 4.896532384977e+06 
6.199999999999e+01 4.896545174747e+06 
6.300000000000e+01 4.896562321443e+06 
6.400000000000e+01 4.896568002950e+06 
 ZONE T="TIME=2.100000001000e+03"
0.000000000000e+00 4.896564478233e+06 
9.999999999972e-01 4.896573561869e+06 
1.999999999994e+00 4.896590094406e+06 
2.999999999992e+00 4.896613685663e+06 
3.999999999989e+00 4.896639824986e+06 
4.999999999986e+00 4.896655824612e+06 
5.999999999983e+00 4.896668740651e+06 
6.999999999981e+00 4.896680237662e+06 
7.999999999978e+00 4.896693513184e+06 
8.999999999975e+00 4.896698039232e+06 
9.999999999972e+00 4.896695532631e+06 
1.099999999997e+01 4.896681147651e+06 
1.199999999997e+01 4.896655037190e+06 
1.299999999996e+01 4.896632443263e+06 
1.399999999996e+01 4.896600198382e+06 
1.499999999996e+01 4.896582493500e+06 
1.599999999996e+01 4.896570612455e+06 
1.699999999995e+01 4.896553032411e+06 
1.799999999995e+01 4.896535182368e+06 
1.899999999995e+01 4.896510843359e+06 
1.999999999994e+01 4.896496084880e+06 
2.099999999994e+01 4.896488920824e+06 
2.199999999994e+01 4.896489167591e+06 
2.299999999994e+01 4.896493736181e+06 
2.399999999993e+01 4.896497418553e+06 
2.499999999993e+01 4.896504142324e+06 
2.599999999993e+01 4.896501029957e+06 
2.699999999993e+01 4.896497244770e+06 
2.799999999992e+01 4.896497572462e+06 
2.899999999992e+01 4.896491059273e+06 
2.999999999992e+01 4.896478474892e+06 
3.099999999991e+01 4.896463030865e+06 
3.199999999991e+01 4.896451004843e+06 
3.299999999991e+01 4.896440408581e+06 
3.399999999992e+01 4.896432687891e+06 
3.499999999992e+01 4.896419856932e+06 
3.599999999992e+01 4.896393851057e+06 
3.699999999993e+01 4.896374157846e+06 
3.799999999993e+01 4.896352894907e+06 
3.899999999993e+01 4.896311838241e+06 
3.999999999993e+01 4.896265915314e+06 
4.099999999994e+01 4.896218763307e+06 
4.199999999994e+01 4.896149770218e+06 
4.299999999994e+01 4.896097264494e+06 
4.399999999994e+01 4.896090474135e+06 
4.499999999995e+01 4.896101052476e+06 
4.599999999995e+01 4.896121418186e+06 
4.699999999995e+01 4.896180550992e+06 
4.799999999996e+01 4.896217739235e+06 
4.899999999996e+01 4.896247037915e+06 
4.999999999996e+01 4.896266547458e+06 
5.099999999996e+01 4.896291294530e+06 
5.199999999997e+01 4.896320380854e+06 
5.299999999997e+01 4.896349459830e+06 
5.399999999997e+01 4.896375965759e+06 
5.499999999998e+01 4.896406193776e+06 
5.599999999998e+01 4.896441764474e+06 
5.699999999998e+01 4.896468481902e+06 
5.799999999998e+01 4.896479201851e+06 
5.899999999999e+01 4.896497160297e+06 
5.999999999999e+01 4.896520148134e+06 
6.099999999999e+01 4.896532384977e+06 
6.199999999999e+01 4.896545174747e+06 
6.300000000000e+01 4.896562321443e+06 
6.400000000000e+01 4.896568002951e+06 
 ZONE T="TIME=2.400000001000e+03"
0.000000000000e+00 4.896721047877e+06 
9.999999999972e-01 4.896730196386e+06 
1.999999999994e+00 4.896746837226e+06 
2.999999999992e+00 4.896770573234e+06 
3.999999999989e+00 4.896796848167e+06 
4.999999999986e+00 4.896812923110e+06 
5.999999999983e+00 4.896825889149e+06 
6.999999999981e+00 4.896837424601e+06 
7.999999999978e+00 4.896850724786e+06 
8.999999999975e+00 4.896855231500e+06 
9.999999999972e+00 4.896852661887e+06 
1.099999999997e+01 4.896838186521e+06 
1.199999999997e+01 4.896811943296e+06 
1.299999999996e+01 4.896789195841e+06 
1.399999999996e+01 4.896756720236e+06 
1.499999999996e+01 4.896738848060e+06 
1.599999999996e+01 4.896726850951e+06 
1.699999999995e+01 4.896709111331e+06 
1.799999999995e+01 4.896691096460e+06 
1.899999999995e+01 4.896666539436e+06 
1.999999999994e+01 4.896651628179e+06 
2.099999999994e+01 4.896644373510e+06 
2.199999999994e+01 4.896644589044e+06 
2.299999999994e+01 4.896649152603e+06 
2.399999999993e+01 4.896652817843e+06 
2.499999999993e+01 4.896659535136e+06 
2.599999999993e+01 4.896656359249e+06 
2.699999999993e+01 4.896652507885e+06 
2.799999999992e+01 4.896652786523e+06 
2.899999999992e+01 4.896646182030e+06 
2.999999999992e+01 4.896633474134e+06 
3.099999999991e+01 4.896617888201e+06 
3.199999999991e+01 4.896605740654e+06 
3.299999999991e+01 4.896595031665e+06 
3.399999999992e+01 4.896587202540e+06 
3.499999999992e+01 4.896574227134e+06 
3.599999999992e+01 4.896548031259e+06 
3.699999999993e+01 4.896528156294e+06 
3.799999999993e+01 4.896506693293e+06 
3.899999999993e+01 4.896465393880e+06 
3.999999999993e+01 4.896419173009e+06 
4.099999999994e+01 4.896371678796e+06 
4.199999999994e+01 4.896302140432e+06 
4.299999999994e+01 4.896249087539e+06 
4.399999999994e+01 4.896242215855e+06 
4.499999999995e+01 4.896252876663e+06 
4.599999999995e+01 4.896273415165e+06 
4.699999999995e+01 4.896333054118e+06 
4.799999999996e+01 4.896370528684e+06 
4.899999999996e+01 4.896400048663e+06 
4.999999999996e+01 4.896419718150e+06 
5.099999999996e+01 4.896444659361e+06 
5.199999999997e+01 4.896473967957e+06 
5.299999999997e+01 4.896503263891e+06 
5.399999999997e+01 4.896529970727e+06 
5.499999999998e+01 4.896560420336e+06 
5.599999999998e+01 4.896596217382e+06 
5.699999999998e+01 4.896623121404e+06 
5.799999999998e+01 4.896633967029e+06 
5.899999999999e+01 4.896652051380e+06 
5.999999999999e+01 4.896675172412e+06 
6.099999999999e+01 4.896687493630e+06 
6.199999999999e+01 4.896700351972e+06 
6.300000000000e+01 4.896717553502e+06 
6.400000000000e+01 4.896723249860e+06 
 ZONE T="TIME=2.700000001000e+03"
0.000000000000e+00 4.896870901582e+06 
9.999999999972e-01 4.896880111144e+06 
1.999999999994e+00 4.896896853883e+06 
2.999999999992e+00 4.896920726018e+06 
3.999999999989e+00 4.896947128608e+06 
4.999999999986e+00 4.896963274749e+06 
5.999999999983e+00 4.896976288401e+06 
6.999999999981e+00 4.896987860668e+06 
7.999999999978e+00 4.897001184936e+06 
8.999999999975e+00 4.897005674643e+06 
9.999999999972e+00 4.897003047393e+06 
1.099999999997e+01 4.896988489123e+06 
1.199999999997e+01 4.896962123579e+06 
1.299999999996e+01 4.896939234190e+06 
1.399999999996e+01 4.896906544547e+06 
1.499999999996e+01 4.896888517543e+06 
1.599999999996e+01 4.896876414815e+06 
1.699999999995e+01 4.896858528352e+06 
1.799999999995e+01 4.896840361835e+06 
1.899999999995e+01 4.896815603212e+06 
1.999999999994e+01 4.896800550912e+06 
2.099999999994e+01 4.896793213970e+06 
2.199999999994e+01 4.896793403064e+06 
2.299999999994e+01 4.896797965563e+06 
2.399999999993e+01 4.896801618440e+06 
2.499999999993e+01 4.896808333921e+06 
2.599999999993e+01 4.896805103374e+06 
2.699999999993e+01 4.896801194095e+06 
2.799999999992e+01 4.896801431713e+06 
2.899999999992e+01 4.896794746995e+06 
2.999999999992e+01 4.896781928719e+06 
3.099999999991e+01 4.896766214925e+06 
3.199999999991e+01 4.896753957976e+06 
3.299999999991e+01 4.896743147910e+06 
3.399999999992e+01 4.896735221150e+06 
3.499999999992e+01 4.896722115108e+06 
3.599999999992e+01 4.896695746263e+06 
3.699999999993e+01 4.896675704448e+06 
3.799999999993e+01 4.896654057831e+06 
3.899999999993e+01 4.896612536358e+06 
3.999999999993e+01 4.896566041425e+06 
4.099999999994e+01 4.896518231234e+06 
4.199999999994e+01 4.896448187856e+06 
4.299999999994e+01 4.896394625048e+06 
4.399999999994e+01 4.896387677895e+06 
4.499999999995e+01 4.896398416124e+06 
4.599999999995e+01 4.896419116104e+06 
4.699999999995e+01 4.896479227130e+06 
4.799999999996e+01 4.896516968243e+06 
4.899999999996e+01 4.896546693890e+06 
4.999999999996e+01 4.896566512251e+06 
5.099999999996e+01 4.896591634197e+06 
5.199999999997e+01 4.896621149680e+06 
5.299999999997e+01 4.896650647409e+06 
5.399999999997e+01 4.896677541244e+06 
5.499999999998e+01 4.896708197232e+06 
5.599999999998e+01 4.896744204851e+06 
5.699999999998e+01 4.896771282133e+06 
5.799999999998e+01 4.896782245053e+06 
5.899999999999e+01 4.896800446765e+06 
5.999999999999e+01 4.896823691635e+06 
6.099999999999e+01 4.896836091333e+06 
6.199999999999e+01 4.896849013493e+06 
6.300000000000e+01 4.896866265802e+06 
6.400000000000e+01 4.896871975896e+06 
 ZONE T="TIME=3.000000001000e+03"
0.000000000000e+00 4.897036475586e+06 
9.999999999972e-01 4.897045750726e+06 
1.999999999994e+00 4.897062602462e+06 
2.999999999992e+00 4.897086619826e+06 
3.999999999989e+00 4.897113157811e+06 
4.999999999986e+00 4.897129378645e+06 
5.999999999983e+00 4.897142441270e+06 
6.999999999981e+00 4.897154050731e+06 
7.999999999978e+00 4.897167397891e+06 
8.999999999975e+00 4.897171866328e+06 
9.999999999972e+00 4.897169174161e+06 
1.099999999997e+01 4.897154524211e+06 
1.199999999997e+01 4.897128025040e+06 
1.299999999996e+01 4.897104980343e+06 
1.399999999996e+01 4.897072057573e+06 
1.499999999996e+01 4.897053860644e+06 
1.599999999996e+01 4.897041639812e+06 
1.699999999995e+01 4.897023591095e+06 
1.799999999995e+01 4.897005256873e+06 
1.899999999995e+01 4.896980276643e+06 