 TITLE = "Profiles along polylines"
 VARIABLES = "DIST" "PRESSURE1" 
 ZONE T="TIME=0.000000000000e+00"
0.000000000000e+00 0.000000000000e+00 
1.000000000001e+00 0.000000000000e+00 
1.999999999998e+00 0.000000000000e+00 
2.999999999996e+00 0.000000000000e+00 
3.999999999993e+00 0.000000000000e+00 
4.999999999990e+00 0.000000000000e+00 
5.999999999987e+00 0.000000000000e+00 
6.999999999984e+00 0.000000000000e+00 
7.999999999981e+00 0.000000000000e+00 
8.999999999979e+00 0.000000000000e+00 
9.999999999976e+00 0.000000000000e+00 
1.099999999997e+01 0.000000000000e+00 
1.199999999997e+01 0.000000000000e+00 
1.299999999997e+01 0.000000000000e+00 
1.399999999996e+01 0.000000000000e+00 
1.499999999996e+01 0.000000000000e+00 
1.599999999996e+01 0.000000000000e+00 
1.699999999996e+01 0.000000000000e+00 
1.799999999995e+01 0.000000000000e+00 
1.899999999995e+01 0.000000000000e+00 
1.999999999995e+01 0.000000000000e+00 
2.099999999994e+01 0.000000000000e+00 
2.199999999994e+01 0.000000000000e+00 
2.299999999994e+01 0.000000000000e+00 
2.399999999994e+01 0.000000000000e+00 
2.499999999993e+01 0.000000000000e+00 
2.599999999993e+01 0.000000000000e+00 
2.699999999993e+01 0.000000000000e+00 
2.799999999992e+01 0.000000000000e+00 
2.899999999992e+01 0.000000000000e+00 
2.999999999992e+01 0.000000000000e+00 
3.099999999992e+01 0.000000000000e+00 
3.199999999991e+01 0.000000000000e+00 
3.299999999992e+01 0.000000000000e+00 
3.399999999992e+01 0.000000000000e+00 
3.499999999992e+01 0.000000000000e+00 
3.599999999992e+01 0.000000000000e+00 
3.699999999993e+01 0.000000000000e+00 
3.799999999993e+01 0.000000000000e+00 
3.899999999993e+01 0.000000000000e+00 
3.999999999993e+01 0.000000000000e+00 
4.099999999994e+01 0.000000000000e+00 
4.199999999994e+01 0.000000000000e+00 
4.299999999994e+01 0.000000000000e+00 
4.399999999995e+01 0.000000000000e+00 
4.499999999995e+01 0.000000000000e+00 
4.599999999995e+01 0.000000000000e+00 
4.699999999995e+01 0.000000000000e+00 
4.799999999996e+01 0.000000000000e+00 
4.899999999996e+01 0.000000000000e+00 
4.999999999996e+01 0.000000000000e+00 
5.099999999996e+01 0.000000000000e+00 
5.199999999997e+01 0.000000000000e+00 
5.299999999997e+01 0.000000000000e+00 
5.399999999997e+01 0.000000000000e+00 
5.499999999998e+01 0.000000000000e+00 
5.599999999998e+01 0.000000000000e+00 
5.699999999998e+01 0.000000000000e+00 
5.799999999998e+01 0.000000000000e+00 
5.899999999999e+01 0.000000000000e+00 
5.999999999999e+01 0.000000000000e+00 
6.099999999999e+01 0.000000000000e+00 
6.199999999999e+01 0.000000000000e+00 
6.300000000000e+01 0.000000000000e+00 
6.400000000000e+01 0.000000000000e+00 
 TITLE = "Profiles along polylines"
 VARIABLES = "DIST" "PRESSURE1" 
 ZONE T="TIME=1.000000000000e-06"
0.000000000000e+00 4.890110793343e+06 
1.000000000001e+00 4.890103590849e+06 
1.999999999998e+00 4.890105583612e+06 
2.999999999996e+00 4.890118772692e+06 
3.999999999993e+00 4.890129460360e+06 
4.999999999990e+00 4.890140908302e+06 
5.999999999987e+00 4.890158727608e+06 
6.999999999984e+00 4.890166576166e+06 
7.999999999981e+00 4.890172329257e+06 
8.999999999979e+00 4.890174915049e+06 
9.999999999976e+00 4.890175317235e+06 
1.099999999997e+01 4.890179111355e+06 
1.199999999997e+01 4.890175121829e+06 
1.299999999997e+01 4.890185465295e+06 
1.399999999996e+01 4.890200136955e+06 
1.499999999996e+01 4.890202661522e+06 
1.599999999996e+01 4.890194676927e+06 
1.699999999996e+01 4.890173232685e+06 
1.799999999995e+01 4.890165029151e+06 
1.899999999995e+01 4.890181725382e+06 
1.999999999995e+01 4.890185741421e+06 
2.099999999994e+01 4.890186123788e+06 
2.199999999994e+01 4.890173600143e+06 
2.299999999994e+01 4.890163697710e+06 
2.399999999994e+01 4.890159270843e+06 
2.499999999993e+01 4.890133467432e+06 
2.599999999993e+01 4.890118112663e+06 
2.699999999993e+01 4.890122653568e+06 
2.799999999992e+01 4.890119850307e+06 
2.899999999992e+01 4.890101510843e+06 
2.999999999992e+01 4.890088555943e+06 
3.099999999992e+01 4.890097349219e+06 
3.199999999991e+01 4.890109428772e+06 
3.299999999992e+01 4.890122727569e+06 
3.399999999992e+01 4.890145121308e+06 
3.499999999992e+01 4.890162625335e+06 
3.599999999992e+01 4.890163863447e+06 
3.699999999993e+01 4.890155965683e+06 
3.799999999993e+01 4.890150273801e+06 
3.899999999993e+01 4.890137587210e+06 
3.999999999993e+01 4.890119590779e+06 
4.099999999994e+01 4.890118393446e+06 
4.199999999994e+01 4.890112707192e+06 
4.299999999994e+01 4.890089350032e+06 
4.399999999995e+01 4.890091444169e+06 
4.499999999995e+01 4.890095081597e+06 
4.599999999995e+01 4.890102494166e+06 
4.699999999995e+01 4.890112323634e+06 
4.799999999996e+01 4.890111570175e+06 
4.899999999996e+01 4.890106046458e+06 
4.999999999996e+01 4.890105549957e+06 
5.099999999996e+01 4.890106628773e+06 
5.199999999997e+01 4.890108036462e+06 
5.299999999997e+01 4.890121475588e+06 
5.399999999997e+01 4.890124300992e+06 
5.499999999998e+01 4.890114136570e+06 
5.599999999998e+01 4.890089166084e+06 
5.699999999998e+01 4.890070985109e+06 
5.799999999998e+01 4.890064530225e+06 
5.899999999999e+01 4.890071043334e+06 
5.999999999999e+01 4.890075122361e+06 
6.099999999999e+01 4.890070347765e+06 
6.199999999999e+01 4.890074069936e+06 
6.300000000000e+01 4.890082227224e+06 
6.400000000000e+01 4.890085058500e+06 
 ZONE T="TIME=3.000000010000e+02"
0.000000000000e+00 4.890110793343e+06 
1.000000000001e+00 4.890103590849e+06 
1.999999999998e+00 4.890105583612e+06 
2.999999999996e+00 4.890118772692e+06 
3.999999999993e+00 4.890129460360e+06 
4.999999999990e+00 4.890140908302e+06 
5.999999999987e+00 4.890158727608e+06 
6.999999999984e+00 4.890166576166e+06 
7.999999999981e+00 4.890172329257e+06 
8.999999999979e+00 4.890174915049e+06 
9.999999999976e+00 4.890175317235e+06 
1.099999999997e+01 4.890179111355e+06 
1.199999999997e+01 4.890175121829e+06 
1.299999999997e+01 4.890185465295e+06 
1.399999999996e+01 4.890200136955e+06 
1.499999999996e+01 4.890202661522e+06 
1.599999999996e+01 4.890194676927e+06 
1.699999999996e+01 4.890173232685e+06 
1.799999999995e+01 4.890165029151e+06 
1.899999999995e+01 4.890181725382e+06 
1.999999999995e+01 4.890185741421e+06 
2.099999999994e+01 4.890186123788e+06 
2.199999999994e+01 4.890173600143e+06 
2.299999999994e+01 4.890163697710e+06 
2.399999999994e+01 4.890159270843e+06 
2.499999999993e+01 4.890133467432e+06 
2.599999999993e+01 4.890118112663e+06 
2.699999999993e+01 4.890122653568e+06 
2.799999999992e+01 4.890119850307e+06 
2.899999999992e+01 4.890101510843e+06 
2.999999999992e+01 4.890088555943e+06 
3.099999999992e+01 4.890097349219e+06 
3.199999999991e+01 4.890109428772e+06 
3.299999999992e+01 4.890122727569e+06 
3.399999999992e+01 4.890145121308e+06 
3.499999999992e+01 4.890162625335e+06 
3.599999999992e+01 4.890163863447e+06 
3.699999999993e+01 4.890155965683e+06 
3.799999999993e+01 4.890150273801e+06 
3.899999999993e+01 4.890137587210e+06 
3.999999999993e+01 4.890119590779e+06 
4.099999999994e+01 4.890118393446e+06 
4.199999999994e+01 4.890112707192e+06 
4.299999999994e+01 4.890089350032e+06 
4.399999999995e+01 4.890091444169e+06 
4.499999999995e+01 4.890095081597e+06 
4.599999999995e+01 4.890102494166e+06 
4.699999999995e+01 4.890112323634e+06 
4.799999999996e+01 4.890111570175e+06 
4.899999999996e+01 4.890106046458e+06 
4.999999999996e+01 4.890105549957e+06 
5.099999999996e+01 4.890106628773e+06 
5.199999999997e+01 4.890108036462e+06 
5.299999999997e+01 4.890121475588e+06 
5.399999999997e+01 4.890124300992e+06 
5.499999999998e+01 4.890114136570e+06 
5.599999999998e+01 4.890089166084e+06 
5.699999999998e+01 4.890070985109e+06 
5.799999999998e+01 4.890064530225e+06 
5.899999999999e+01 4.890071043334e+06 
5.999999999999e+01 4.890075122361e+06 
6.099999999999e+01 4.890070347765e+06 
6.199999999999e+01 4.890074069936e+06 
6.300000000000e+01 4.890082227224e+06 
6.400000000000e+01 4.890085058500e+06 
 ZONE T="TIME=6.000000010000e+02"
0.000000000000e+00 4.890110793343e+06 
1.000000000001e+00 4.890103590849e+06 
1.999999999998e+00 4.890105583612e+06 
2.999999999996e+00 4.890118772692e+06 
3.999999999993e+00 4.890129460361e+06 
4.999999999990e+00 4.890140908302e+06 
5.999999999987e+00 4.890158727608e+06 
6.999999999984e+00 4.890166576166e+06 
7.999999999981e+00 4.890172329257e+06 
8.999999999979e+00 4.890174915049e+06 
9.999999999976e+00 4.890175317235e+06 
1.099999999997e+01 4.890179111355e+06 
1.199999999997e+01 4.890175121829e+06 
1.299999999997e+01 4.890185465295e+06 
1.399999999996e+01 4.890200136955e+06 
1.499999999996e+01 4.890202661522e+06 
1.599999999996e+01 4.890194676927e+06 
1.699999999996e+01 4.890173232685e+06 
1.799999999995e+01 4.890165029151e+06 
1.899999999995e+01 4.890181725383e+06 
1.999999999995e+01 4.890185741421e+06 
2.099999999994e+01 4.890186123788e+06 
2.199999999994e+01 4.890173600143e+06 
2.299999999994e+01 4.890163697710e+06 
2.399999999994e+01 4.890159270843e+06 
2.499999999993e+01 4.890133467432e+06 
2.599999999993e+01 4.890118112663e+06 
2.699999999993e+01 4.890122653568e+06 
2.799999999992e+01 4.890119850307e+06 
2.899999999992e+01 4.890101510843e+06 
2.999999999992e+01 4.890088555943e+06 
3.099999999992e+01 4.890097349219e+06 
3.199999999991e+01 4.890109428772e+06 
3.299999999992e+01 4.890122727569e+06 
3.399999999992e+01 4.890145121308e+06 
3.499999999992e+01 4.890162625335e+06 
3.599999999992e+01 4.890163863447e+06 
3.699999999993e+01 4.890155965683e+06 
3.799999999993e+01 4.890150273801e+06 
3.899999999993e+01 4.890137587210e+06 
3.999999999993e+01 4.890119590779e+06 
4.099999999994e+01 4.890118393446e+06 
4.199999999994e+01 4.890112707193e+06 
4.299999999994e+01 4.890089350032e+06 
4.399999999995e+01 4.890091444169e+06 
4.499999999995e+01 4.890095081597e+06 
4.599999999995e+01 4.890102494166e+06 
4.699999999995e+01 4.890112323634e+06 
4.799999999996e+01 4.890111570175e+06 
4.899999999996e+01 4.890106046458e+06 
4.999999999996e+01 4.890105549957e+06 
5.099999999996e+01 4.890106628773e+06 
5.199999999997e+01 4.890108036462e+06 
5.299999999997e+01 4.890121475588e+06 
5.399999999997e+01 4.890124300992e+06 
5.499999999998e+01 4.890114136570e+06 
5.599999999998e+01 4.890089166085e+06 
5.699999999998e+01 4.890070985109e+06 
5.799999999998e+01 4.890064530225e+06 
5.899999999999e+01 4.890071043334e+06 
5.999999999999e+01 4.890075122361e+06 
6.099999999999e+01 4.890070347765e+06 
6.199999999999e+01 4.890074069936e+06 
6.300000000000e+01 4.890082227224e+06 
6.400000000000e+01 4.890085058500e+06 
 ZONE T="TIME=9.000000010000e+02"
0.000000000000e+00 4.890110793343e+06 
1.000000000001e+00 4.890103590849e+06 
1.999999999998e+00 4.890105583612e+06 
2.999999999996e+00 4.890118772692e+06 
3.999999999993e+00 4.890129460361e+06 
4.999999999990e+00 4.890140908302e+06 
5.999999999987e+00 4.890158727608e+06 
6.999999999984e+00 4.890166576166e+06 
7.999999999981e+00 4.890172329257e+06 
8.999999999979e+00 4.890174915049e+06 
9.999999999976e+00 4.890175317235e+06 
1.099999999997e+01 4.890179111355e+06 
1.199999999997e+01 4.890175121829e+06 
1.299999999997e+01 4.890185465295e+06 
1.399999999996e+01 4.890200136955e+06 
1.499999999996e+01 4.890202661522e+06 
1.599999999996e+01 4.890194676927e+06 
1.699999999996e+01 4.890173232685e+06 
1.799999999995e+01 4.890165029151e+06 
1.899999999995e+01 4.890181725383e+06 
1.999999999995e+01 4.890185741421e+06 
2.099999999994e+01 4.890186123788e+06 
2.199999999994e+01 4.890173600143e+06 
2.299999999994e+01 4.890163697710e+06 
2.399999999994e+01 4.890159270843e+06 
2.499999999993e+01 4.890133467432e+06 
2.599999999993e+01 4.890118112663e+06 
2.699999999993e+01 4.890122653568e+06 
2.799999999992e+01 4.890119850307e+06 
2.899999999992e+01 4.890101510843e+06 
2.999999999992e+01 4.890088555943e+06 
3.099999999992e+01 4.890097349219e+06 
3.199999999991e+01 4.890109428772e+06 
3.299999999992e+01 4.890122727569e+06 
3.399999999992e+01 4.890145121308e+06 
3.499999999992e+01 4.890162625335e+06 
3.599999999992e+01 4.890163863447e+06 
3.699999999993e+01 4.890155965683e+06 
3.799999999993e+01 4.890150273801e+06 
3.899999999993e+01 4.890137587210e+06 
3.999999999993e+01 4.890119590779e+06 
4.099999999994e+01 4.890118393446e+06 
4.199999999994e+01 4.890112707193e+06 
4.299999999994e+01 4.890089350032e+06 
4.399999999995e+01 4.890091444169e+06 
4.499999999995e+01 4.890095081597e+06 
4.599999999995e+01 4.890102494166e+06 
4.699999999995e+01 4.890112323634e+06 
4.799999999996e+01 4.890111570175e+06 
4.899999999996e+01 4.890106046458e+06 
4.999999999996e+01 4.890105549957e+06 
5.099999999996e+01 4.890106628773e+06 
5.199999999997e+01 4.890108036462e+06 
5.299999999997e+01 4.890121475588e+06 
5.399999999997e+01 4.890124300992e+06 
5.499999999998e+01 4.890114136570e+06 
5.599999999998e+01 4.890089166084e+06 
5.699999999998e+01 4.890070985109e+06 
5.799999999998e+01 4.890064530225e+06 
5.899999999999e+01 4.890071043334e+06 
5.999999999999e+01 4.890075122361e+06 
6.099999999999e+01 4.890070347765e+06 
6.199999999999e+01 4.890074069936e+06 
6.300000000000e+01 4.890082227224e+06 
6.400000000000e+01 4.890085058500e+06 
 ZONE T="TIME=1.200000001000e+03"
0.000000000000e+00 4.890110793343e+06 
1.000000000001e+00 4.890103590849e+06 
1.999999999998e+00 4.890105583612e+06 
2.999999999996e+00 4.890118772692e+06 
3.999999999993e+00 4.890129460360e+06 
4.999999999990e+00 4.890140908302e+06 
5.999999999987e+00 4.890158727608e+06 
6.999999999984e+00 4.890166576166e+06 
7.999999999981e+00 4.890172329257e+06 
8.999999999979e+00 4.890174915049e+06 
9.999999999976e+00 4.890175317235e+06 
1.099999999997e+01 4.890179111355e+06 
1.199999999997e+01 4.890175121829e+06 
1.299999999997e+01 4.890185465295e+06 
1.399999999996e+01 4.890200136955e+06 
1.499999999996e+01 4.890202661522e+06 
1.599999999996e+01 4.890194676927e+06 
1.699999999996e+01 4.890173232685e+06 
1.799999999995e+01 4.890165029151e+06 
1.899999999995e+01 4.890181725382e+06 
1.999999999995e+01 4.890185741421e+06 
2.099999999994e+01 4.890186123788e+06 
2.199999999994e+01 4.890173600143e+06 
2.299999999994e+01 4.890163697710e+06 
2.399999999994e+01 4.890159270843e+06 
2.499999999993e+01 4.890133467432e+06 
2.599999999993e+01 4.890118112663e+06 
2.699999999993e+01 4.890122653568e+06 
2.799999999992e+01 4.890119850307e+06 
2.899999999992e+01 4.890101510843e+06 
2.999999999992e+01 4.890088555943e+06 
3.099999999992e+01 4.890097349219e+06 
3.199999999991e+01 4.890109428772e+06 
3.299999999992e+01 4.890122727569e+06 
3.399999999992e+01 4.890145121308e+06 
3.499999999992e+01 4.890162625335e+06 
3.599999999992e+01 4.890163863447e+06 
3.699999999993e+01 4.890155965683e+06 
3.799999999993e+01 4.890150273801e+06 
3.899999999993e+01 4.890137587210e+06 
3.999999999993e+01 4.890119590779e+06 
4.099999999994e+01 4.890118393446e+06 
4.199999999994e+01 4.890112707192e+06 
4.299999999994e+01 4.890089350032e+06 
4.399999999995e+01 4.890091444169e+06 
4.499999999995e+01 4.890095081597e+06 
4.599999999995e+01 4.890102494166e+06 
4.699999999995e+01 4.890112323634e+06 
4.799999999996e+01 4.890111570175e+06 
4.899999999996e+01 4.890106046458e+06 
4.999999999996e+01 4.890105549957e+06 
5.099999999996e+01 4.890106628773e+06 
5.199999999997e+01 4.890108036462e+06 
5.299999999997e+01 4.890121475588e+06 
5.399999999997e+01 4.890124300992e+06 
5.499999999998e+01 4.890114136570e+06 
5.599999999998e+01 4.890089166084e+06 
5.699999999998e+01 4.890070985109e+06 
5.799999999998e+01 4.890064530225e+06 
5.899999999999e+01 4.890071043334e+06 
5.999999999999e+01 4.890075122361e+06 
6.099999999999e+01 4.890070347765e+06 
6.199999999999e+01 4.890074069936e+06 
6.300000000000e+01 4.890082227224e+06 
6.400000000000e+01 4.890085058500e+06 
 ZONE T="TIME=1.500000001000e+03"
0.000000000000e+00 4.890110793343e+06 
1.000000000001e+00 4.890103590849e+06 
1.999999999998e+00 4.890105583612e+06 
2.999999999996e+00 4.890118772692e+06 
3.999999999993e+00 4.890129460360e+06 
4.999999999990e+00 4.890140908302e+06 
5.999999999987e+00 4.890158727608e+06 
6.999999999984e+00 4.890166576166e+06 
7.999999999981e+00 4.890172329257e+06 
8.999999999979e+00 4.890174915049e+06 
9.999999999976e+00 4.890175317235e+06 
1.099999999997e+01 4.890179111355e+06 
1.199999999997e+01 4.890175121829e+06 
1.299999999997e+01 4.890185465295e+06 
1.399999999996e+01 4.890200136955e+06 
1.499999999996e+01 4.890202661522e+06 
1.599999999996e+01 4.890194676927e+06 
1.699999999996e+01 4.890173232685e+06 
1.799999999995e+01 4.890165029151e+06 
1.899999999995e+01 4.890181725382e+06 
1.999999999995e+01 4.890185741421e+06 
2.099999999994e+01 4.890186123788e+06 
2.199999999994e+01 4.890173600143e+06 
2.299999999994e+01 4.890163697710e+06 
2.399999999994e+01 4.890159270843e+06 
2.499999999993e+01 4.890133467432e+06 
2.599999999993e+01 4.890118112663e+06 
2.699999999993e+01 4.890122653568e+06 
2.799999999992e+01 4.890119850307e+06 
2.899999999992e+01 4.890101510843e+06 
2.999999999992e+01 4.890088555943e+06 
3.099999999992e+01 4.890097349219e+06 
3.199999999991e+01 4.890109428772e+06 
3.299999999992e+01 4.890122727569e+06 
3.399999999992e+01 4.890145121308e+06 
3.499999999992e+01 4.890162625335e+06 
3.599999999992e+01 4.890163863447e+06 
3.699999999993e+01 4.890155965683e+06 
3.799999999993e+01 4.890150273801e+06 
3.899999999993e+01 4.890137587210e+06 
3.999999999993e+01 4.890119590779e+06 
4.099999999994e+01 4.890118393446e+06 
4.199999999994e+01 4.890112707192e+06 
4.299999999994e+01 4.890089350032e+06 
4.399999999995e+01 4.890091444169e+06 
4.499999999995e+01 4.890095081597e+06 
4.599999999995e+01 4.890102494166e+06 
4.699999999995e+01 4.890112323634e+06 
4.799999999996e+01 4.890111570175e+06 
4.899999999996e+01 4.890106046458e+06 
4.999999999996e+01 4.890105549957e+06 
5.099999999996e+01 4.890106628773e+06 
5.199999999997e+01 4.890108036462e+06 
5.299999999997e+01 4.890121475588e+06 
5.399999999997e+01 4.890124300992e+06 
5.499999999998e+01 4.890114136570e+06 
5.599999999998e+01 4.890089166084e+06 
5.699999999998e+01 4.890070985109e+06 
5.799999999998e+01 4.890064530225e+06 
5.899999999999e+01 4.890071043334e+06 
5.999999999999e+01 4.890075122361e+06 
6.099999999999e+01 4.890070347765e+06 
6.199999999999e+01 4.890074069936e+06 
6.300000000000e+01 4.890082227224e+06 
6.400000000000e+01 4.890085058500e+06 
 ZONE T="TIME=1.800000001000e+03"
0.000000000000e+00 4.890110793343e+06 
1.000000000001e+00 4.890103590849e+06 
1.999999999998e+00 4.890105583612e+06 
2.999999999996e+00 4.890118772692e+06 
3.999999999993e+00 4.890129460361e+06 
4.999999999990e+00 4.890140908302e+06 
5.999999999987e+00 4.890158727608e+06 
6.999999999984e+00 4.890166576166e+06 
7.999999999981e+00 4.890172329257e+06 
8.999999999979e+00 4.890174915049e+06 
9.999999999976e+00 4.890175317235e+06 
1.099999999997e+01 4.890179111355e+06 
1.199999999997e+01 4.890175121829e+06 
1.299999999997e+01 4.890185465295e+06 
1.399999999996e+01 4.890200136955e+06 
1.499999999996e+01 4.890202661522e+06 
1.599999999996e+01 4.890194676927e+06 
1.699999999996e+01 4.890173232685e+06 
1.799999999995e+01 4.890165029151e+06 
1.899999999995e+01 4.890181725383e+06 
1.999999999995e+01 4.890185741421e+06 
2.099999999994e+01 4.890186123788e+06 
2.199999999994e+01 4.890173600143e+06 
2.299999999994e+01 4.890163697710e+06 
2.399999999994e+01 4.890159270843e+06 
2.499999999993e+01 4.890133467432e+06 
2.599999999993e+01 4.890118112663e+06 
2.699999999993e+01 4.890122653568e+06 
2.799999999992e+01 4.890119850307e+06 
2.899999999992e+01 4.890101510843e+06 
2.999999999992e+01 4.890088555943e+06 
3.099999999992e+01 4.890097349219e+06 
3.199999999991e+01 4.890109428772e+06 
3.299999999992e+01 4.890122727569e+06 
3.399999999992e+01 4.890145121308e+06 
3.499999999992e+01 4.890162625335e+06 
3.599999999992e+01 4.890163863447e+06 
3.699999999993e+01 4.890155965683e+06 
3.799999999993e+01 4.890150273801e+06 
3.899999999993e+01 4.890137587210e+06 
3.999999999993e+01 4.890119590779e+06 
4.099999999994e+01 4.890118393446e+06 
4.199999999994e+01 4.890112707193e+06 
4.299999999994e+01 4.890089350032e+06 
4.399999999995e+01 4.890091444169e+06 
4.499999999995e+01 4.890095081597e+06 
4.599999999995e+01 4.890102494166e+06 
4.699999999995e+01 4.890112323634e+06 
4.799999999996e+01 4.890111570175e+06 
4.899999999996e+01 4.890106046458e+06 
4.999999999996e+01 4.890105549957e+06 
5.099999999996e+01 4.890106628773e+06 
5.199999999997e+01 4.890108036462e+06 
5.299999999997e+01 4.890121475588e+06 
5.399999999997e+01 4.890124300992e+06 
5.499999999998e+01 4.890114136570e+06 
5.599999999998e+01 4.890089166085e+06 
5.699999999998e+01 4.890070985109e+06 
5.799999999998e+01 4.890064530225e+06 
5.899999999999e+01 4.890071043334e+06 
5.999999999999e+01 4.890075122361e+06 
6.099999999999e+01 4.890070347765e+06 
6.199999999999e+01 4.890074069936e+06 
6.300000000000e+01 4.890082227224e+06 
6.400000000000e+01 4.890085058500e+06 
 ZONE T="TIME=2.100000001000e+03"
0.000000000000e+00 4.890110793343e+06 
1.000000000001e+00 4.890103590849e+06 
1.999999999998e+00 4.890105583612e+06 
2.999999999996e+00 4.890118772692e+06 
3.999999999993e+00 4.890129460361e+06 
4.999999999990e+00 4.890140908302e+06 
5.999999999987e+00 4.890158727608e+06 
6.999999999984e+00 4.890166576166e+06 
7.999999999981e+00 4.890172329257e+06 
8.999999999979e+00 4.890174915049e+06 
9.999999999976e+00 4.890175317235e+06 
1.099999999997e+01 4.890179111355e+06 
1.199999999997e+01 4.890175121829e+06 
1.299999999997e+01 4.890185465295e+06 
1.399999999996e+01 4.890200136955e+06 
1.499999999996e+01 4.890202661522e+06 
1.599999999996e+01 4.890194676927e+06 
1.699999999996e+01 4.890173232685e+06 
1.799999999995e+01 4.890165029151e+06 
1.899999999995e+01 4.890181725383e+06 
1.999999999995e+01 4.890185741421e+06 
2.099999999994e+01 4.890186123788e+06 
2.199999999994e+01 4.890173600143e+06 
2.299999999994e+01 4.890163697710e+06 
2.399999999994e+01 4.890159270843e+06 
2.499999999993e+01 4.890133467432e+06 
2.599999999993e+01 4.890118112663e+06 
2.699999999993e+01 4.890122653568e+06 
2.799999999992e+01 4.890119850307e+06 
2.899999999992e+01 4.890101510843e+06 
2.999999999992e+01 4.890088555943e+06 
3.099999999992e+01 4.890097349219e+06 
3.199999999991e+01 4.890109428772e+06 
3.299999999992e+01 4.890122727569e+06 
3.399999999992e+01 4.890145121308e+06 
3.499999999992e+01 4.890162625335e+06 
3.599999999992e+01 4.890163863447e+06 
3.699999999993e+01 4.890155965683e+06 
3.799999999993e+01 4.890150273801e+06 
3.899999999993e+01 4.890137587210e+06 
3.999999999993e+01 4.890119590779e+06 
4.099999999994e+01 4.890118393446e+06 
4.199999999994e+01 4.890112707193e+06 
4.299999999994e+01 4.890089350032e+06 
4.399999999995e+01 4.890091444169e+06 
4.499999999995e+01 4.890095081597e+06 
4.599999999995e+01 4.890102494166e+06 
4.699999999995e+01 4.890112323634e+06 
4.799999999996e+01 4.890111570175e+06 
4.899999999996e+01 4.890106046458e+06 
4.999999999996e+01 4.890105549957e+06 
5.099999999996e+01 4.890106628773e+06 
5.199999999997e+01 4.890108036462e+06 
5.299999999997e+01 4.890121475588e+06 
5.399999999997e+01 4.890124300992e+06 
5.499999999998e+01 4.890114136570e+06 
5.599999999998e+01 4.890089166084e+06 
5.699999999998e+01 4.890070985109e+06 
5.799999999998e+01 4.890064530225e+06 
5.899999999999e+01 4.890071043334e+06 
5.999999999999e+01 4.890075122361e+06 
6.099999999999e+01 4.890070347765e+06 
6.199999999999e+01 4.890074069936e+06 
6.300000000000e+01 4.890082227224e+06 
6.400000000000e+01 4.890085058500e+06 
 ZONE T="TIME=2.400000001000e+03"
0.000000000000e+00 4.890110155321e+06 
1.000000000001e+00 4.890102930245e+06 
1.999999999998e+00 4.890104959799e+06 
2.999999999996e+00 4.890118310562e+06 
3.999999999993e+00 4.890129148278e+06 
4.999999999990e+00 4.890140796048e+06 
5.999999999987e+00 4.890158965722e+06 
6.999999999984e+00 4.890167014280e+06 
7.999999999981e+00 4.890172922138e+06 
8.999999999979e+00 4.890175558723e+06 
9.999999999976e+00 4.890175941427e+06 
1.099999999997e+01 4.890179822387e+06 
1.199999999997e+01 4.890175731863e+06 
1.299999999997e+01 4.890186262782e+06 
1.399999999996e+01 4.890201259358e+06 
1.499999999996e+01 4.890203826258e+06 
1.599999999996e+01 4.890195618463e+06 
1.699999999996e+01 4.890173706979e+06 
1.799999999995e+01 4.890165342806e+06 
1.899999999995e+01 4.890182361922e+06 
1.999999999995e+01 4.890186456140e+06 
2.099999999994e+01 4.890186859614e+06 
2.199999999994e+01 4.890174103256e+06 
2.299999999994e+01 4.890164019142e+06 
2.399999999994e+01 4.890159480111e+06 
2.499999999993e+01 4.890133270140e+06 
2.599999999993e+01 4.890117713270e+06 
2.699999999993e+01 4.890122312435e+06 
2.799999999992e+01 4.890119479921e+06 
2.899999999992e+01 4.890100922803e+06 
2.999999999992e+01 4.890087889827e+06 
3.099999999992e+01 4.890096727887e+06 
3.199999999991e+01 4.890108961132e+06 
3.299999999992e+01 4.890122450850e+06 
3.399999999992e+01 4.890145236070e+06 
3.499999999992e+01 4.890163140431e+06 
3.599999999992e+01 4.890164432325e+06 
3.699999999993e+01 4.890156393023e+06 
3.799999999993e+01 4.890150632185e+06 
3.899999999993e+01 4.890137714048e+06 
3.999999999993e+01 4.890119454399e+06 
4.099999999994e+01 4.890118293552e+06 
4.199999999994e+01 4.890112563706e+06 
4.299999999994e+01 4.890088962773e+06 
4.399999999995e+01 4.890091063410e+06 
4.499999999995e+01 4.890094722663e+06 
4.599999999995e+01 4.890102200730e+06 
4.699999999995e+01 4.890112193305e+06 
4.799999999996e+01 4.890111410765e+06 
4.899999999996e+01 4.890105771721e+06 
4.999999999996e+01 4.890105241500e+06 
5.099999999996e+01 4.890106336609e+06 
5.199999999997e+01 4.890107786351e+06 
5.299999999997e+01 4.890121471204e+06 
5.399999999997e+01 4.890124376437e+06 
5.499999999998e+01 4.890114028926e+06 
5.599999999998e+01 4.890088734369e+06 
5.699999999998e+01 4.890070460791e+06 
5.799999999998e+01 4.890063987523e+06 
5.899999999999e+01 4.890070518735e+06 
5.999999999999e+01 4.890074610242e+06 
6.099999999999e+01 4.890069783212e+06 
6.199999999999e+01 4.890073537145e+06 
6.300000000000e+01 4.890081804905e+06 
6.400000000000e+01 4.890084699804e+06 
 ZONE T="TIME=2.700000001000e+03"
0.000000000000e+00 4.890109544955e+06 
1.000000000001e+00 4.890102301505e+06 
1.999999999998e+00 4.890104366997e+06 
2.999999999996e+00 4.890117868696e+06 
3.999999999993e+00 4.890128847273e+06 
4.999999999990e+00 4.890140684021e+06 
5.999999999987e+00 4.890159186473e+06 
6.999999999984e+00 4.890167426926e+06 
7.999999999981e+00 4.890173483789e+06 
8.999999999979e+00 4.890176168475e+06 
9.999999999976e+00 4.890176531474e+06 
1.099999999997e+01 4.890180495208e+06 
1.199999999997e+01 4.890176307694e+06 
1.299999999997e+01 4.890187016264e+06 
1.399999999996e+01 4.890202322671e+06 
1.499999999996e+01 4.890204929356e+06 
1.599999999996e+01 4.890196506905e+06 
1.699999999996e+01 4.890174150659e+06 
1.799999999995e+01 4.890165634210e+06 
1.899999999995e+01 4.890182959468e+06 
1.999999999995e+01 4.890187127302e+06 
2.099999999994e+01 4.890187551119e+06 
2.199999999994e+01 4.890174574680e+06 
2.299999999994e+01 4.890164318089e+06 
2.399999999994e+01 4.890159670700e+06 
2.499999999993e+01 4.890133078384e+06 
2.599999999993e+01 4.890117332011e+06 
2.699999999993e+01 4.890121985626e+06 
2.799999999992e+01 4.890119126753e+06 
2.899999999992e+01 4.890100369464e+06 
2.999999999992e+01 4.890087268908e+06 
3.099999999992e+01 4.890096151318e+06 
3.199999999991e+01 4.890108533546e+06 
3.299999999992e+01 4.890122211492e+06 
3.399999999992e+01 4.890145374951e+06 
3.499999999992e+01 4.890163663522e+06 
3.599999999992e+01 4.890165003063e+06 
3.699999999993e+01 4.890156816896e+06 
3.799999999993e+01 4.890150982251e+06 
3.899999999993e+01 4.890137836926e+06 
3.999999999993e+01 4.890119325446e+06 
4.099999999994e+01 4.890118196845e+06 
4.199999999994e+01 4.890112425434e+06 
4.299999999994e+01 4.890088596865e+06 
4.399999999995e+01 4.890090702524e+06 
4.499999999995e+01 4.890094380897e+06 
4.599999999995e+01 4.890101919195e+06 
4.699999999995e+01 4.890112065263e+06 
4.799999999996e+01 4.890111254297e+06 
4.899999999996e+01 4.890105505353e+06 
4.999999999996e+01 4.890104942088e+06 
5.099999999996e+01 4.890106051916e+06 
5.199999999997e+01 4.890107541316e+06 
5.299999999997e+01 4.890121456976e+06 
5.399999999997e+01 4.890124437842e+06 
5.499999999998e+01 4.890113916744e+06 
5.599999999998e+01 4.890088320842e+06 
5.699999999998e+01 4.890069965057e+06 
5.799999999998e+01 4.890063476007e+06 
5.899999999999e+01 4.890070022375e+06 
5.999999999999e+01 4.890074123175e+06 
6.099999999999e+01 4.890069247121e+06 
6.199999999999e+01 4.890073029478e+06 
6.300000000000e+01 4.890081399490e+06 
6.400000000000e+01 4.890084354208e+06 
 ZONE T="TIME=3.000000001000e+03"
0.000000000000e+00 4.890108878191e+06 
1.000000000001e+00 4.890101617923e+06 
1.999999999998e+00 4.890103723823e+06 
2.999999999996e+00 4.890117387568e+06 
3.999999999993e+00 4.890128518196e+06 
4.999999999990e+00 4.890140560353e+06 
5.999999999987e+00 4.890159426011e+06 
6.999999999984e+00 4.890167878022e+06 
7.999999999981e+00 4.890174099709e+06 
8.999999999979e+00 4.890176836727e+06 
9.999999999976e+00 4.890177176895e+06 
1.099999999997e+01 4.890181231263e+06 
1.199999999997e+01 4.890176936709e+06 
1.299999999997e+01 4.890187838751e+06 
1.399999999996e+01 4.890203484621e+06 
1.499999999996e+01 4.890206134247e+06 
1.599999999996e+01 4.890197474614e+06 
1.699999999996e+01 4.890174631901e+06 
1.799999999995e+01 4.890165949482e+06 
1.899999999995e+01 4.890183608196e+06 