 TITLE = "Profiles along polylines"
 VARIABLES = "DIST" "PRESSURE1" 
 ZONE T="TIME=0.000000000000e+00"
0.000000000000e+00 5.000000000000e-02 
9.999999999972e-01 5.000000000000e-02 
1.999999999994e+00 5.000000000000e-02 
2.999999999992e+00 5.000000000000e-02 
3.999999999989e+00 5.000000000000e-02 
4.999999999986e+00 5.000000000000e-02 
5.999999999983e+00 5.000000000000e-02 
6.999999999981e+00 5.000000000000e-02 
7.999999999978e+00 5.000000000000e-02 
8.999999999975e+00 5.000000000000e-02 
9.999999999972e+00 5.000000000000e-02 
1.099999999997e+01 5.000000000000e-02 
1.199999999997e+01 5.000000000000e-02 
1.299999999996e+01 5.000000000000e-02 
1.399999999996e+01 5.000000000000e-02 
1.499999999996e+01 5.000000000000e-02 
1.599999999996e+01 5.000000000000e-02 
1.699999999995e+01 5.000000000000e-02 
1.799999999995e+01 5.000000000000e-02 
1.899999999995e+01 5.000000000000e-02 
1.999999999994e+01 5.000000000000e-02 
2.099999999994e+01 5.000000000000e-02 
2.199999999994e+01 5.000000000000e-02 
2.299999999994e+01 5.000000000000e-02 
2.399999999993e+01 5.000000000000e-02 
2.499999999993e+01 5.000000000000e-02 
2.599999999993e+01 5.000000000000e-02 
2.699999999993e+01 5.000000000000e-02 
2.799999999992e+01 5.000000000000e-02 
2.899999999992e+01 5.000000000000e-02 
2.999999999992e+01 5.000000000000e-02 
3.099999999991e+01 5.000000000000e-02 
3.199999999991e+01 5.000000000000e-02 
3.299999999991e+01 5.000000000000e-02 
3.399999999992e+01 5.000000000000e-02 
3.499999999992e+01 5.000000000000e-02 
3.599999999992e+01 5.000000000000e-02 
3.699999999993e+01 5.000000000000e-02 
3.799999999993e+01 5.000000000000e-02 
3.899999999993e+01 5.000000000000e-02 
3.999999999993e+01 5.000000000000e-02 
4.099999999994e+01 5.000000000000e-02 
4.199999999994e+01 5.000000000000e-02 
4.299999999994e+01 5.000000000000e-02 
4.399999999994e+01 5.000000000000e-02 
4.499999999995e+01 5.000000000000e-02 
4.599999999995e+01 5.000000000000e-02 
4.699999999995e+01 5.000000000000e-02 
4.799999999996e+01 5.000000000000e-02 
4.899999999996e+01 5.000000000000e-02 
4.999999999996e+01 5.000000000000e-02 
5.099999999996e+01 5.000000000000e-02 
5.199999999997e+01 5.000000000000e-02 
5.299999999997e+01 5.000000000000e-02 
5.399999999997e+01 5.000000000000e-02 
5.499999999998e+01 5.000000000000e-02 
5.599999999998e+01 5.000000000000e-02 
5.699999999998e+01 5.000000000000e-02 
5.799999999998e+01 5.000000000000e-02 
5.899999999999e+01 5.000000000000e-02 
5.999999999999e+01 5.000000000000e-02 
6.099999999999e+01 5.000000000000e-02 
6.199999999999e+01 5.000000000000e-02 
6.300000000000e+01 5.000000000000e-02 
6.400000000000e+01 5.000000000000e-02 
 TITLE = "Profiles along polylines"
 VARIABLES = "DIST" "PRESSURE1" 
 ZONE T="TIME=1.000000000000e-06"
0.000000000000e+00 1.541230277771e+05 
9.999999999972e-01 1.541796747692e+05 
1.999999999994e+00 1.542833614348e+05 
2.999999999992e+00 1.544282126124e+05 
3.999999999989e+00 1.545824742846e+05 
4.999999999986e+00 1.546783175920e+05 
5.999999999983e+00 1.547547405089e+05 
6.999999999981e+00 1.548216872700e+05 
7.999999999978e+00 1.548925432759e+05 
8.999999999975e+00 1.549194796530e+05 
9.999999999972e+00 1.549038285729e+05 
1.099999999997e+01 1.548272791622e+05 
1.199999999997e+01 1.546941409588e+05 
1.299999999996e+01 1.545685042522e+05 
1.399999999996e+01 1.543819120382e+05 
1.499999999996e+01 1.542700027406e+05 
1.599999999996e+01 1.542026159613e+05 
1.699999999995e+01 1.540953707871e+05 
1.799999999995e+01 1.539843109075e+05 
1.899999999995e+01 1.538294870090e+05 
1.999999999994e+01 1.537275301691e+05 
2.099999999994e+01 1.536746934953e+05 
2.199999999994e+01 1.536685158350e+05 
2.299999999994e+01 1.536876223863e+05 
2.399999999993e+01 1.536980735909e+05 
2.499999999993e+01 1.537231388332e+05 
2.599999999993e+01 1.536927952126e+05 
2.699999999993e+01 1.536570943835e+05 
2.799999999992e+01 1.536428545295e+05 
2.899999999992e+01 1.535892401767e+05 
2.999999999992e+01 1.535021996266e+05 
3.099999999991e+01 1.533978198423e+05 
3.199999999991e+01 1.533121885514e+05 
3.299999999991e+01 1.532353089783e+05 
3.399999999992e+01 1.531701629358e+05 
3.499999999992e+01 1.530757082669e+05 
3.599999999992e+01 1.529165514650e+05 
3.699999999993e+01 1.527820807437e+05 
3.799999999993e+01 1.526376480330e+05 
3.899999999993e+01 1.524056031140e+05 
3.999999999993e+01 1.521390747306e+05 
4.099999999994e+01 1.518538920301e+05 
4.199999999994e+01 1.514273529427e+05 
4.299999999994e+01 1.510529446454e+05 
4.399999999994e+01 1.509978987972e+05 
4.499999999995e+01 1.510598600916e+05 
4.599999999995e+01 1.511866134872e+05 
4.699999999995e+01 1.515596545978e+05 
4.799999999996e+01 1.517804368927e+05 
4.899999999996e+01 1.519500698957e+05 
4.999999999996e+01 1.520665098060e+05 
5.099999999996e+01 1.522129871092e+05 
5.199999999997e+01 1.523833469478e+05 
5.299999999997e+01 1.525505175055e+05 
5.399999999997e+01 1.527034356090e+05 
5.499999999998e+01 1.528760282320e+05 
5.599999999998e+01 1.530676731094e+05 
5.699999999998e+01 1.532116636158e+05 
5.799999999998e+01 1.532818462627e+05 
5.899999999999e+01 1.533772915233e+05 
5.999999999999e+01 1.534890416782e+05 
6.099999999999e+01 1.535476932906e+05 
6.199999999999e+01 1.536052823826e+05 
6.300000000000e+01 1.536746902243e+05 
6.400000000000e+01 1.536948724907e+05 
 ZONE T="TIME=3.000000010000e+02"
0.000000000000e+00 3.901689596288e+06 
9.999999999972e-01 3.901995660683e+06 
1.999999999994e+00 3.902371415479e+06 
2.999999999992e+00 3.902523727218e+06 
3.999999999989e+00 3.902616444844e+06 
4.999999999986e+00 3.902662646674e+06 
5.999999999983e+00 3.902671885486e+06 
6.999999999981e+00 3.902647889106e+06 
7.999999999978e+00 3.902592878239e+06 
8.999999999975e+00 3.902507804014e+06 
9.999999999972e+00 3.902392653230e+06 
1.099999999997e+01 3.902247739794e+06 
1.199999999997e+01 3.902074282829e+06 
1.299999999996e+01 3.901875387465e+06 
1.399999999996e+01 3.901617238522e+06 
1.499999999996e+01 3.901369705053e+06 
1.599999999996e+01 3.901099223398e+06 
1.699999999995e+01 3.900793457883e+06 
1.799999999995e+01 3.900412661485e+06 
1.899999999995e+01 3.899818276410e+06 
1.999999999994e+01 3.899425328204e+06 
2.099999999994e+01 3.899308826171e+06 
2.199999999994e+01 3.899390983245e+06 
2.299999999994e+01 3.899571853589e+06 
2.399999999993e+01 3.899663359515e+06 
2.499999999993e+01 3.899736437445e+06 
2.599999999993e+01 3.899705914302e+06 
2.699999999993e+01 3.899640164702e+06 
2.799999999992e+01 3.899544804104e+06 
2.899999999992e+01 3.899404129215e+06 
2.999999999992e+01 3.899215665236e+06 
3.099999999991e+01 3.898990736987e+06 
3.199999999991e+01 3.898776954067e+06 
3.299999999991e+01 3.898564471343e+06 
3.399999999992e+01 3.898310887252e+06 
3.499999999992e+01 3.898016151462e+06 
3.599999999992e+01 3.897675424057e+06 
3.699999999993e+01 3.897315110033e+06 
3.799999999993e+01 3.896924373189e+06 
3.899999999993e+01 3.896485227933e+06 
3.999999999993e+01 3.895990917690e+06 
4.099999999994e+01 3.895410126694e+06 
4.199999999994e+01 3.894564445412e+06 
4.299999999994e+01 3.893436961555e+06 
4.399999999994e+01 3.893230475754e+06 
4.499999999995e+01 3.893363050612e+06 
4.599999999995e+01 3.893621768965e+06 
4.699999999995e+01 3.894431976885e+06 
4.799999999996e+01 3.894806171141e+06 
4.899999999996e+01 3.895051540834e+06 
4.999999999996e+01 3.895236714806e+06 
5.099999999996e+01 3.895468629204e+06 
5.199999999997e+01 3.895730378766e+06 
5.299999999997e+01 3.895956929523e+06 
5.399999999997e+01 3.896182885483e+06 
5.499999999998e+01 3.896492187600e+06 
5.599999999998e+01 3.896796503201e+06 
5.699999999998e+01 3.896995198079e+06 
5.799999999998e+01 3.897145686632e+06 
5.899999999999e+01 3.897305677519e+06 
5.999999999999e+01 3.897461240652e+06 
6.099999999999e+01 3.897548288969e+06 
6.199999999999e+01 3.897625963588e+06 
6.300000000000e+01 3.897695637125e+06 
6.400000000000e+01 3.897713948178e+06 
 ZONE T="TIME=6.000000010000e+02"
0.000000000000e+00 5.844956519681e+06 
9.999999999972e-01 5.844961998728e+06 
1.999999999994e+00 5.844986554935e+06 
2.999999999992e+00 5.845013023334e+06 
3.999999999989e+00 5.845027461792e+06 
4.999999999986e+00 5.845006870244e+06 
5.999999999983e+00 5.844956270177e+06 
6.999999999981e+00 5.844877048626e+06 
7.999999999978e+00 5.844770301306e+06 
8.999999999975e+00 5.844637050028e+06 
9.999999999972e+00 5.844476973273e+06 
1.099999999997e+01 5.844289818680e+06 
1.199999999997e+01 5.844077069262e+06 
1.299999999996e+01 5.843843801851e+06 
1.399999999996e+01 5.843538131656e+06 
1.499999999996e+01 5.843272820147e+06 
1.599999999996e+01 5.843043041256e+06 
1.699999999995e+01 5.842712008549e+06 
1.799999999995e+01 5.842298040241e+06 
1.899999999995e+01 5.841518869663e+06 
1.999999999994e+01 5.840987171088e+06 
2.099999999994e+01 5.840974332170e+06 
2.199999999994e+01 5.841332571329e+06 
2.299999999994e+01 5.841843533696e+06 
2.399999999993e+01 5.842047562884e+06 
2.499999999993e+01 5.842178810768e+06 
2.599999999993e+01 5.842246233469e+06 
2.699999999993e+01 5.842289964904e+06 
2.799999999992e+01 5.842316999317e+06 
2.899999999992e+01 5.842293602126e+06 
2.999999999992e+01 5.842234901195e+06 
3.099999999991e+01 5.842112105525e+06 
3.199999999991e+01 5.841982235523e+06 
3.299999999991e+01 5.841908063718e+06 
3.399999999992e+01 5.841792207237e+06 
3.499999999992e+01 5.841637471013e+06 
3.599999999992e+01 5.841426652537e+06 
3.699999999993e+01 5.841201693494e+06 
3.799999999993e+01 5.840957975296e+06 
3.899999999993e+01 5.840660706145e+06 
3.999999999993e+01 5.840309829211e+06 
4.099999999994e+01 5.839875825401e+06 
4.199999999994e+01 5.839201887841e+06 
4.299999999994e+01 5.838211001305e+06 
4.399999999994e+01 5.838105813967e+06 
4.499999999995e+01 5.838352051312e+06 
4.599999999995e+01 5.838708726633e+06 
4.699999999995e+01 5.839630809993e+06 
4.799999999996e+01 5.840106755121e+06 
4.899999999996e+01 5.840461629688e+06 
4.999999999996e+01 5.840748506957e+06 
5.099999999996e+01 5.841042358549e+06 
5.199999999997e+01 5.841343026446e+06 
5.299999999997e+01 5.841608704212e+06 
5.399999999997e+01 5.841859564887e+06 
5.499999999998e+01 5.842144401137e+06 
5.599999999998e+01 5.842410233527e+06 
5.699999999998e+01 5.842596758198e+06 
5.799999999998e+01 5.842737750376e+06 
5.899999999999e+01 5.842890552330e+06 
5.999999999999e+01 5.843037662107e+06 
6.099999999999e+01 5.843098620363e+06 
6.199999999999e+01 5.843166228029e+06 
6.300000000000e+01 5.843245378608e+06 
6.400000000000e+01 5.843263828025e+06 
 ZONE T="TIME=9.000000010000e+02"
0.000000000000e+00 2.232114911028e+06 
9.999999999972e-01 2.232455232193e+06 
1.999999999994e+00 2.232873684628e+06 
2.999999999992e+00 2.233045790186e+06 
3.999999999989e+00 2.233154337023e+06 
4.999999999986e+00 2.233217164693e+06 
5.999999999983e+00 2.233240408631e+06 
6.999999999981e+00 2.233229096717e+06 
7.999999999978e+00 2.233185687007e+06 
8.999999999975e+00 2.233111179072e+06 
9.999999999972e+00 2.233005645169e+06 
1.099999999997e+01 2.232869265860e+06 
1.199999999997e+01 2.232702773683e+06 
1.299999999996e+01 2.232508123720e+06 
1.399999999996e+01 2.232258578065e+06 
1.499999999996e+01 2.232007231131e+06 
1.599999999996e+01 2.231717545830e+06 
1.699999999995e+01 2.231368265688e+06 
1.799999999995e+01 2.230989495478e+06 
1.899999999995e+01 2.230444683425e+06 
1.999999999994e+01 2.230076887607e+06 
2.099999999994e+01 2.229967617065e+06 
2.199999999994e+01 2.230062046435e+06 
2.299999999994e+01 2.230262486592e+06 
2.399999999993e+01 2.230399021383e+06 
2.499999999993e+01 2.230522170536e+06 
2.599999999993e+01 2.230507070512e+06 
2.699999999993e+01 2.230472833120e+06 
2.799999999992e+01 2.230485713114e+06 
2.899999999992e+01 2.230424947649e+06 
2.999999999992e+01 2.230295620566e+06 
3.099999999991e+01 2.230120022644e+06 
3.199999999991e+01 2.229986928739e+06 
3.299999999991e+01 2.229890479153e+06 
3.399999999992e+01 2.229757820985e+06 
3.499999999992e+01 2.229573872453e+06 
3.599999999992e+01 2.229338912237e+06 
3.699999999993e+01 2.229083718712e+06 
3.799999999993e+01 2.228798085233e+06 
3.899999999993e+01 2.228464109230e+06 
3.999999999993e+01 2.228076296957e+06 
4.099999999994e+01 2.227606847682e+06 
4.199999999994e+01 2.226885794358e+06 
4.299999999994e+01 2.225944802456e+06 
4.399999999994e+01 2.225801266874e+06 
4.499999999995e+01 2.225952697322e+06 
4.599999999995e+01 2.226219321327e+06 
4.699999999995e+01 2.226981647557e+06 
4.799999999996e+01 2.227358489876e+06 
4.899999999996e+01 2.227619232317e+06 
4.999999999996e+01 2.227820503264e+06 
5.099999999996e+01 2.228067002534e+06 
5.199999999997e+01 2.228340120443e+06 
5.299999999997e+01 2.228581615771e+06 
5.399999999997e+01 2.228813708094e+06 
5.499999999998e+01 2.229099777702e+06 
5.599999999998e+01 2.229390276538e+06 
5.699999999998e+01 2.229601678179e+06 
5.799999999998e+01 2.229757131993e+06 
5.899999999999e+01 2.229922000380e+06 
5.999999999999e+01 2.230078665753e+06 
6.099999999999e+01 2.230170212860e+06 
6.199999999999e+01 2.230250023610e+06 
6.300000000000e+01 2.230320939963e+06 
6.400000000000e+01 2.230340299400e+06 
 ZONE T="TIME=1.200000001000e+03"
0.000000000000e+00 2.232114911030e+06 
9.999999999972e-01 2.232455232195e+06 
1.999999999994e+00 2.232873684630e+06 
2.999999999992e+00 2.233045790188e+06 
3.999999999989e+00 2.233154337025e+06 
4.999999999986e+00 2.233217164695e+06 
5.999999999983e+00 2.233240408633e+06 
6.999999999981e+00 2.233229096719e+06 
7.999999999978e+00 2.233185687009e+06 
8.999999999975e+00 2.233111179074e+06 
9.999999999972e+00 2.233005645170e+06 
1.099999999997e+01 2.232869265862e+06 
1.199999999997e+01 2.232702773685e+06 
1.299999999996e+01 2.232508123721e+06 
1.399999999996e+01 2.232258578066e+06 
1.499999999996e+01 2.232007231133e+06 
1.599999999996e+01 2.231717545832e+06 
1.699999999995e+01 2.231368265690e+06 
1.799999999995e+01 2.230989495479e+06 
1.899999999995e+01 2.230444683427e+06 
1.999999999994e+01 2.230076887609e+06 
2.099999999994e+01 2.229967617066e+06 
2.199999999994e+01 2.230062046437e+06 
2.299999999994e+01 2.230262486594e+06 
2.399999999993e+01 2.230399021385e+06 
2.499999999993e+01 2.230522170537e+06 
2.599999999993e+01 2.230507070513e+06 
2.699999999993e+01 2.230472833121e+06 
2.799999999992e+01 2.230485713116e+06 
2.899999999992e+01 2.230424947651e+06 
2.999999999992e+01 2.230295620568e+06 
3.099999999991e+01 2.230120022646e+06 
3.199999999991e+01 2.229986928740e+06 
3.299999999991e+01 2.229890479154e+06 
3.399999999992e+01 2.229757820987e+06 
3.499999999992e+01 2.229573872454e+06 
3.599999999992e+01 2.229338912239e+06 
3.699999999993e+01 2.229083718714e+06 
3.799999999993e+01 2.228798085235e+06 
3.899999999993e+01 2.228464109232e+06 
3.999999999993e+01 2.228076296959e+06 
4.099999999994e+01 2.227606847684e+06 
4.199999999994e+01 2.226885794359e+06 
4.299999999994e+01 2.225944802458e+06 
4.399999999994e+01 2.225801266875e+06 
4.499999999995e+01 2.225952697323e+06 
4.599999999995e+01 2.226219321329e+06 
4.699999999995e+01 2.226981647559e+06 
4.799999999996e+01 2.227358489878e+06 
4.899999999996e+01 2.227619232319e+06 
4.999999999996e+01 2.227820503265e+06 
5.099999999996e+01 2.228067002536e+06 
5.199999999997e+01 2.228340120445e+06 
5.299999999997e+01 2.228581615773e+06 
5.399999999997e+01 2.228813708096e+06 
5.499999999998e+01 2.229099777703e+06 
5.599999999998e+01 2.229390276540e+06 
5.699999999998e+01 2.229601678181e+06 
5.799999999998e+01 2.229757131995e+06 
5.899999999999e+01 2.229922000381e+06 
5.999999999999e+01 2.230078665755e+06 
6.099999999999e+01 2.230170212862e+06 
6.199999999999e+01 2.230250023612e+06 
6.300000000000e+01 2.230320939965e+06 
6.400000000000e+01 2.230340299402e+06 
 ZONE T="TIME=1.500000001000e+03"
0.000000000000e+00 2.232114911027e+06 
9.999999999972e-01 2.232455232192e+06 
1.999999999994e+00 2.232873684627e+06 
2.999999999992e+00 2.233045790185e+06 
3.999999999989e+00 2.233154337022e+06 
4.999999999986e+00 2.233217164692e+06 
5.999999999983e+00 2.233240408630e+06 
6.999999999981e+00 2.233229096716e+06 
7.999999999978e+00 2.233185687006e+06 
8.999999999975e+00 2.233111179071e+06 
9.999999999972e+00 2.233005645167e+06 
1.099999999997e+01 2.232869265859e+06 
1.199999999997e+01 2.232702773682e+06 
1.299999999996e+01 2.232508123718e+06 
1.399999999996e+01 2.232258578064e+06 
1.499999999996e+01 2.232007231130e+06 
1.599999999996e+01 2.231717545829e+06 
1.699999999995e+01 2.231368265687e+06 
1.799999999995e+01 2.230989495476e+06 
1.899999999995e+01 2.230444683424e+06 
1.999999999994e+01 2.230076887606e+06 
2.099999999994e+01 2.229967617063e+06 
2.199999999994e+01 2.230062046434e+06 
2.299999999994e+01 2.230262486591e+06 
2.399999999993e+01 2.230399021382e+06 
2.499999999993e+01 2.230522170534e+06 
2.599999999993e+01 2.230507070510e+06 
2.699999999993e+01 2.230472833118e+06 
2.799999999992e+01 2.230485713113e+06 
2.899999999992e+01 2.230424947648e+06 
2.999999999992e+01 2.230295620565e+06 
3.099999999991e+01 2.230120022643e+06 
3.199999999991e+01 2.229986928737e+06 
3.299999999991e+01 2.229890479152e+06 
3.399999999992e+01 2.229757820984e+06 
3.499999999992e+01 2.229573872451e+06 
3.599999999992e+01 2.229338912236e+06 
3.699999999993e+01 2.229083718711e+06 
3.799999999993e+01 2.228798085232e+06 
3.899999999993e+01 2.228464109229e+06 
3.999999999993e+01 2.228076296956e+06 
4.099999999994e+01 2.227606847681e+06 
4.199999999994e+01 2.226885794356e+06 
4.299999999994e+01 2.225944802455e+06 
4.399999999994e+01 2.225801266872e+06 
4.499999999995e+01 2.225952697320e+06 
4.599999999995e+01 2.226219321326e+06 
4.699999999995e+01 2.226981647556e+06 
4.799999999996e+01 2.227358489875e+06 
4.899999999996e+01 2.227619232316e+06 
4.999999999996e+01 2.227820503262e+06 
5.099999999996e+01 2.228067002533e+06 
5.199999999997e+01 2.228340120442e+06 
5.299999999997e+01 2.228581615770e+06 
5.399999999997e+01 2.228813708093e+06 
5.499999999998e+01 2.229099777700e+06 
5.599999999998e+01 2.229390276537e+06 
5.699999999998e+01 2.229601678178e+06 
5.799999999998e+01 2.229757131992e+06 
5.899999999999e+01 2.229922000378e+06 
5.999999999999e+01 2.230078665752e+06 
6.099999999999e+01 2.230170212859e+06 
6.199999999999e+01 2.230250023609e+06 
6.300000000000e+01 2.230320939962e+06 
6.400000000000e+01 2.230340299399e+06 
 ZONE T="TIME=1.800000001000e+03"
0.000000000000e+00 2.232114911029e+06 
9.999999999972e-01 2.232455232194e+06 
1.999999999994e+00 2.232873684629e+06 
2.999999999992e+00 2.233045790187e+06 
3.999999999989e+00 2.233154337024e+06 
4.999999999986e+00 2.233217164694e+06 
5.999999999983e+00 2.233240408632e+06 
6.999999999981e+00 2.233229096718e+06 
7.999999999978e+00 2.233185687008e+06 
8.999999999975e+00 2.233111179073e+06 
9.999999999972e+00 2.233005645170e+06 
1.099999999997e+01 2.232869265861e+06 
1.199999999997e+01 2.232702773684e+06 
1.299999999996e+01 2.232508123721e+06 
1.399999999996e+01 2.232258578066e+06 
1.499999999996e+01 2.232007231132e+06 
1.599999999996e+01 2.231717545831e+06 
1.699999999995e+01 2.231368265689e+06 
1.799999999995e+01 2.230989495479e+06 
1.899999999995e+01 2.230444683426e+06 
1.999999999994e+01 2.230076887608e+06 
2.099999999994e+01 2.229967617065e+06 
2.199999999994e+01 2.230062046436e+06 
2.299999999994e+01 2.230262486593e+06 
2.399999999993e+01 2.230399021384e+06 
2.499999999993e+01 2.230522170536e+06 
2.599999999993e+01 2.230507070513e+06 
2.699999999993e+01 2.230472833120e+06 
2.799999999992e+01 2.230485713115e+06 
2.899999999992e+01 2.230424947650e+06 
2.999999999992e+01 2.230295620567e+06 
3.099999999991e+01 2.230120022645e+06 
3.199999999991e+01 2.229986928740e+06 
3.299999999991e+01 2.229890479154e+06 
3.399999999992e+01 2.229757820986e+06 
3.499999999992e+01 2.229573872454e+06 
3.599999999992e+01 2.229338912238e+06 
3.699999999993e+01 2.229083718713e+06 
3.799999999993e+01 2.228798085234e+06 
3.899999999993e+01 2.228464109231e+06 
3.999999999993e+01 2.228076296958e+06 
4.099999999994e+01 2.227606847683e+06 
4.199999999994e+01 2.226885794359e+06 
4.299999999994e+01 2.225944802457e+06 
4.399999999994e+01 2.225801266875e+06 
4.499999999995e+01 2.225952697323e+06 
4.599999999995e+01 2.226219321328e+06 
4.699999999995e+01 2.226981647558e+06 
4.799999999996e+01 2.227358489877e+06 
4.899999999996e+01 2.227619232318e+06 
4.999999999996e+01 2.227820503265e+06 
5.099999999996e+01 2.228067002535e+06 
5.199999999997e+01 2.228340120444e+06 
5.299999999997e+01 2.228581615772e+06 
5.399999999997e+01 2.228813708095e+06 
5.499999999998e+01 2.229099777703e+06 
5.599999999998e+01 2.229390276539e+06 
5.699999999998e+01 2.229601678180e+06 
5.799999999998e+01 2.229757131994e+06 
5.899999999999e+01 2.229922000380e+06 
5.999999999999e+01 2.230078665754e+06 
6.099999999999e+01 2.230170212861e+06 
6.199999999999e+01 2.230250023611e+06 
6.300000000000e+01 2.230320939964e+06 
6.400000000000e+01 2.230340299401e+06 
 ZONE T="TIME=2.100000001000e+03"
0.000000000000e+00 2.232114911029e+06 
9.999999999972e-01 2.232455232194e+06 
1.999999999994e+00 2.232873684629e+06 
2.999999999992e+00 2.233045790188e+06 
3.999999999989e+00 2.233154337024e+06 
4.999999999986e+00 2.233217164694e+06 
5.999999999983e+00 2.233240408632e+06 
6.999999999981e+00 2.233229096718e+06 
7.999999999978e+00 2.233185687008e+06 
8.999999999975e+00 2.233111179073e+06 
9.999999999972e+00 2.233005645170e+06 
1.099999999997e+01 2.232869265861e+06 
1.199999999997e+01 2.232702773685e+06 
1.299999999996e+01 2.232508123721e+06 
1.399999999996e+01 2.232258578066e+06 
1.499999999996e+01 2.232007231132e+06 
1.599999999996e+01 2.231717545831e+06 
1.699999999995e+01 2.231368265689e+06 
1.799999999995e+01 2.230989495479e+06 
1.899999999995e+01 2.230444683427e+06 
1.999999999994e+01 2.230076887609e+06 
2.099999999994e+01 2.229967617066e+06 
2.199999999994e+01 2.230062046436e+06 
2.299999999994e+01 2.230262486593e+06 
2.399999999993e+01 2.230399021384e+06 
2.499999999993e+01 2.230522170537e+06 
2.599999999993e+01 2.230507070513e+06 
2.699999999993e+01 2.230472833121e+06 
2.799999999992e+01 2.230485713116e+06 
2.899999999992e+01 2.230424947650e+06 
2.999999999992e+01 2.230295620567e+06 
3.099999999991e+01 2.230120022646e+06 
3.199999999991e+01 2.229986928740e+06 
3.299999999991e+01 2.229890479154e+06 
3.399999999992e+01 2.229757820986e+06 
3.499999999992e+01 2.229573872454e+06 
3.599999999992e+01 2.229338912239e+06 
3.699999999993e+01 2.229083718713e+06 
3.799999999993e+01 2.228798085234e+06 
3.899999999993e+01 2.228464109231e+06 
3.999999999993e+01 2.228076296958e+06 
4.099999999994e+01 2.227606847683e+06 
4.199999999994e+01 2.226885794359e+06 
4.299999999994e+01 2.225944802457e+06 
4.399999999994e+01 2.225801266875e+06 
4.499999999995e+01 2.225952697323e+06 
4.599999999995e+01 2.226219321329e+06 
4.699999999995e+01 2.226981647558e+06 
4.799999999996e+01 2.227358489877e+06 
4.899999999996e+01 2.227619232318e+06 
4.999999999996e+01 2.227820503265e+06 
5.099999999996e+01 2.228067002535e+06 
5.199999999997e+01 2.228340120445e+06 
5.299999999997e+01 2.228581615772e+06 
5.399999999997e+01 2.228813708095e+06 
5.499999999998e+01 2.229099777703e+06 
5.599999999998e+01 2.229390276539e+06 
5.699999999998e+01 2.229601678180e+06 
5.799999999998e+01 2.229757131995e+06 
5.899999999999e+01 2.229922000381e+06 
5.999999999999e+01 2.230078665754e+06 
6.099999999999e+01 2.230170212861e+06 
6.199999999999e+01 2.230250023611e+06 
6.300000000000e+01 2.230320939965e+06 
6.400000000000e+01 2.230340299401e+06 
 ZONE T="TIME=2.400000001000e+03"
0.000000000000e+00 2.232114911029e+06 
9.999999999972e-01 2.232455232194e+06 
1.999999999994e+00 2.232873684629e+06 
2.999999999992e+00 2.233045790187e+06 
3.999999999989e+00 2.233154337024e+06 
4.999999999986e+00 2.233217164694e+06 
5.999999999983e+00 2.233240408632e+06 
6.999999999981e+00 2.233229096718e+06 
7.999999999978e+00 2.233185687008e+06 
8.999999999975e+00 2.233111179073e+06 
9.999999999972e+00 2.233005645170e+06 
1.099999999997e+01 2.232869265861e+06 
1.199999999997e+01 2.232702773684e+06 
1.299999999996e+01 2.232508123721e+06 
1.399999999996e+01 2.232258578066e+06 
1.499999999996e+01 2.232007231132e+06 
1.599999999996e+01 2.231717545831e+06 
1.699999999995e+01 2.231368265689e+06 
1.799999999995e+01 2.230989495479e+06 
1.899999999995e+01 2.230444683427e+06 
1.999999999994e+01 2.230076887608e+06 
2.099999999994e+01 2.229967617066e+06 
2.199999999994e+01 2.230062046436e+06 
2.299999999994e+01 2.230262486593e+06 
2.399999999993e+01 2.230399021384e+06 
2.499999999993e+01 2.230522170537e+06 
2.599999999993e+01 2.230507070513e+06 
2.699999999993e+01 2.230472833121e+06 
2.799999999992e+01 2.230485713116e+06 
2.899999999992e+01 2.230424947650e+06 
2.999999999992e+01 2.230295620567e+06 
3.099999999991e+01 2.230120022645e+06 
3.199999999991e+01 2.229986928740e+06 
3.299999999991e+01 2.229890479154e+06 
3.399999999992e+01 2.229757820986e+06 
3.499999999992e+01 2.229573872454e+06 
3.599999999992e+01 2.229338912239e+06 
3.699999999993e+01 2.229083718713e+06 
3.799999999993e+01 2.228798085234e+06 
3.899999999993e+01 2.228464109231e+06 
3.999999999993e+01 2.228076296958e+06 
4.099999999994e+01 2.227606847683e+06 
4.199999999994e+01 2.226885794359e+06 
4.299999999994e+01 2.225944802457e+06 
4.399999999994e+01 2.225801266875e+06 
4.499999999995e+01 2.225952697323e+06 
4.599999999995e+01 2.226219321328e+06 
4.699999999995e+01 2.226981647558e+06 
4.799999999996e+01 2.227358489877e+06 
4.899999999996e+01 2.227619232318e+06 
4.999999999996e+01 2.227820503265e+06 
5.099999999996e+01 2.228067002535e+06 
5.199999999997e+01 2.228340120444e+06 
5.299999999997e+01 2.228581615772e+06 
5.399999999997e+01 2.228813708095e+06 
5.499999999998e+01 2.229099777703e+06 
5.599999999998e+01 2.229390276539e+06 
5.699999999998e+01 2.229601678180e+06 
5.799999999998e+01 2.229757131995e+06 
5.899999999999e+01 2.229922000381e+06 
5.999999999999e+01 2.230078665754e+06 
6.099999999999e+01 2.230170212861e+06 
6.199999999999e+01 2.230250023611e+06 
6.300000000000e+01 2.230320939965e+06 
6.400000000000e+01 2.230340299401e+06 
 ZONE T="TIME=2.700000001000e+03"
0.000000000000e+00 2.232114911027e+06 
9.999999999972e-01 2.232455232192e+06 
1.999999999994e+00 2.232873684627e+06 
2.999999999992e+00 2.233045790185e+06 
3.999999999989e+00 2.233154337022e+06 
4.999999999986e+00 2.233217164692e+06 
5.999999999983e+00 2.233240408630e+06 
6.999999999981e+00 2.233229096716e+06 
7.999999999978e+00 2.233185687006e+06 
8.999999999975e+00 2.233111179071e+06 
9.999999999972e+00 2.233005645168e+06 
1.099999999997e+01 2.232869265859e+06 
1.199999999997e+01 2.232702773682e+06 
1.299999999996e+01 2.232508123718e+06 
1.399999999996e+01 2.232258578064e+06 
1.499999999996e+01 2.232007231130e+06 
1.599999999996e+01 2.231717545829e+06 
1.699999999995e+01 2.231368265687e+06 
1.799999999995e+01 2.230989495477e+06 
1.899999999995e+01 2.230444683424e+06 
1.999999999994e+01 2.230076887606e+06 
2.099999999994e+01 2.229967617063e+06 
2.199999999994e+01 2.230062046434e+06 
2.299999999994e+01 2.230262486591e+06 
2.399999999993e+01 2.230399021382e+06 
2.499999999993e+01 2.230522170534e+06 
2.599999999993e+01 2.230507070511e+06 
2.699999999993e+01 2.230472833118e+06 
2.799999999992e+01 2.230485713113e+06 
2.899999999992e+01 2.230424947648e+06 
2.999999999992e+01 2.230295620565e+06 
3.099999999991e+01 2.230120022643e+06 
3.199999999991e+01 2.229986928738e+06 
3.299999999991e+01 2.229890479152e+06 
3.399999999992e+01 2.229757820984e+06 
3.499999999992e+01 2.229573872451e+06 
3.599999999992e+01 2.229338912236e+06 
3.699999999993e+01 2.229083718711e+06 
3.799999999993e+01 2.228798085232e+06 
3.899999999993e+01 2.228464109229e+06 
3.999999999993e+01 2.228076296956e+06 
4.099999999994e+01 2.227606847681e+06 
4.199999999994e+01 2.226885794356e+06 
4.299999999994e+01 2.225944802455e+06 
4.399999999994e+01 2.225801266873e+06 
4.499999999995e+01 2.225952697321e+06 
4.599999999995e+01 2.226219321326e+06 
4.699999999995e+01 2.226981647556e+06 
4.799999999996e+01 2.227358489875e+06 
4.899999999996e+01 2.227619232316e+06 
4.999999999996e+01 2.227820503263e+06 
5.099999999996e+01 2.228067002533e+06 
5.199999999997e+01 2.228340120442e+06 
5.299999999997e+01 2.228581615770e+06 
5.399999999997e+01 2.228813708093e+06 
5.499999999998e+01 2.229099777701e+06 
5.599999999998e+01 2.229390276537e+06 
5.699999999998e+01 2.229601678178e+06 
5.799999999998e+01 2.229757131992e+06 
5.899999999999e+01 2.229922000378e+06 
5.999999999999e+01 2.230078665752e+06 
6.099999999999e+01 2.230170212859e+06 
6.199999999999e+01 2.230250023609e+06 
6.300000000000e+01 2.230320939962e+06 
6.400000000000e+01 2.230340299399e+06 
 ZONE T="TIME=3.000000001000e+03"
0.000000000000e+00 2.232114911031e+06 
9.999999999972e-01 2.232455232196e+06 
1.999999999994e+00 2.232873684631e+06 
2.999999999992e+00 2.233045790189e+06 
3.999999999989e+00 2.233154337026e+06 
4.999999999986e+00 2.233217164696e+06 
5.999999999983e+00 2.233240408634e+06 
6.999999999981e+00 2.233229096720e+06 
7.999999999978e+00 2.233185687010e+06 
8.999999999975e+00 2.233111179075e+06 
9.999999999972e+00 2.233005645172e+06 
1.099999999997e+01 2.232869265863e+06 
1.199999999997e+01 2.232702773686e+06 
1.299999999996e+01 2.232508123723e+06 
1.399999999996e+01 2.232258578068e+06 
1.499999999996e+01 2.232007231134e+06 
1.599999999996e+01 2.231717545833e+06 
1.699999999995e+01 2.231368265691e+06 
1.799999999995e+01 2.230989495481e+06 
1.899999999995e+01 2.230444683429e+06 