 TITLE = "Time curves in points"
 VARIABLES = "TIME "  "PRESSURE1" 
 ZONE T="POINT=POINTL4_MID"
0.000000000000e+00 5.000000000000e-02 
1.000000000000e-06 1.112714971574e+05 
3.000000010000e+02 7.481277909391e+05 
6.000000010000e+02 1.462214207967e+06 
9.000000010000e+02 4.417244443000e+05 
1.200000001000e+03 4.417244443006e+05 
1.500000001000e+03 4.417244443002e+05 
1.800000001000e+03 4.417244443004e+05 
2.100000001000e+03 4.417244443007e+05 
2.400000001000e+03 4.417244443007e+05 
2.700000001000e+03 4.417244443000e+05 
3.000000001000e+03 4.417244443008e+05 
3.300000001000e+03 4.417244443003e+05 
3.600000001000e+03 4.417244443002e+05 
3.900000001000e+03 4.417244443003e+05 
4.200000001000e+03 4.417244443004e+05 
4.500000001000e+03 4.417244442999e+05 
4.800000001000e+03 4.417244443003e+05 
5.100000001000e+03 4.417244443003e+05 
5.400000001000e+03 4.417244443005e+05 
5.700000001000e+03 4.417244443009e+05 
6.000000001000e+03 4.417244443006e+05 
6.300000001000e+03 4.417244443003e+05 
6.600000001000e+03 4.417244443010e+05 
6.900000001000e+03 4.417244443000e+05 
7.200000001000e+03 4.417244443007e+05 
7.500000001000e+03 4.417244443007e+05 
7.800000001000e+03 4.417244443010e+05 
8.100000001000e+03 4.417244443010e+05 
8.400000001000e+03 4.417244442995e+05 
8.700000001000e+03 4.417244443012e+05 
9.000000001000e+03 4.417244442998e+05 
9.300000001000e+03 4.417244443003e+05 
9.600000001000e+03 4.417244443005e+05 
9.900000001000e+03 4.417244443005e+05 
1.020000000100e+04 4.417244443008e+05 
1.050000000100e+04 4.417244443003e+05 
1.080000000100e+04 4.417244443006e+05 
1.110000000100e+04 4.417244443000e+05 
1.140000000100e+04 4.417244443009e+05 
1.170000000100e+04 4.417244443004e+05 
1.200000000100e+04 4.417244443003e+05 
1.230000000100e+04 4.417244443006e+05 
1.260000000100e+04 4.417244443002e+05 
1.290000000100e+04 4.417244443009e+05 
1.320000000100e+04 4.417244443013e+05 
1.350000000100e+04 4.417244443007e+05 
1.380000000100e+04 4.417244443006e+05 
1.410000000100e+04 4.417244443005e+05 
1.440000000100e+04 4.417244443009e+05 
1.470000000100e+04 4.417244443002e+05 
1.500000000100e+04 4.417244442999e+05 
1.530000000100e+04 4.417244443004e+05 
1.560000000100e+04 4.417244443000e+05 
1.590000000100e+04 4.417244443002e+05 
1.620000000100e+04 4.417244443005e+05 
1.650000000100e+04 4.417244443007e+05 
1.680000000100e+04 4.417244443006e+05 
1.710000000100e+04 4.417244443004e+05 
1.740000000100e+04 4.417244443003e+05 
1.770000000100e+04 4.417244443002e+05 
1.800000000100e+04 4.417244443005e+05 
1.830000000100e+04 4.417244443001e+05 
1.860000000100e+04 4.417244443002e+05 
