 TITLE = "Time curves in points"
 VARIABLES = "TIME "  "PRESSURE1" 
 ZONE T="POINT=POINTL2_MID"
0.000000000000e+00 0.000000000000e+00 
1.000000000000e-06 4.890160779253e+06 
3.000000010000e+02 4.890160779253e+06 
6.000000010000e+02 4.890160779253e+06 
9.000000010000e+02 4.890160779253e+06 
1.200000001000e+03 4.890160779253e+06 
1.500000001000e+03 4.890160779253e+06 
1.800000001000e+03 4.890160779253e+06 
2.100000001000e+03 4.890160779253e+06 
2.400000001000e+03 4.890161304381e+06 
2.700000001000e+03 4.890161770304e+06 
3.000000001000e+03 4.890162275683e+06 
3.300000001000e+03 4.890162791219e+06 
3.600000001000e+03 4.890163270689e+06 
3.900000001000e+03 4.890163810325e+06 
4.200000001000e+03 4.890160779253e+06 
4.500000001000e+03 4.890162484239e+06 
4.800000001000e+03 4.890164234668e+06 
5.100000001000e+03 4.890166019139e+06 
5.400000001000e+03 4.890167875687e+06 
5.700000001000e+03 4.890169860436e+06 
6.000000001000e+03 4.890172242218e+06 
6.300000001000e+03 4.890160779253e+06 
6.600000001000e+03 4.890163705961e+06 
6.900000001000e+03 4.890166802186e+06 
7.200000001000e+03 4.890170092632e+06 
7.500000001000e+03 4.890172443329e+06 
7.800000001000e+03 4.890177115494e+06 
8.100000001000e+03 4.890183128464e+06 
8.400000001000e+03 4.890160779253e+06 
8.700000001000e+03 4.890164234668e+06 
9.000000001000e+03 4.890167875687e+06 
9.300000001000e+03 4.890172242218e+06 
9.600000001000e+03 4.890175352056e+06 
9.900000001000e+03 4.890182436213e+06 
1.020000000100e+04 4.890190646232e+06 
1.050000000100e+04 4.890160779253e+06 
1.080000000100e+04 4.890163705961e+06 
1.110000000100e+04 4.890166802186e+06 
1.140000000100e+04 4.890170092632e+06 
1.170000000100e+04 4.890172443329e+06 
1.200000000100e+04 4.890177115494e+06 
1.230000000100e+04 4.890183128464e+06 
1.260000000100e+04 4.890160779253e+06 
1.290000000100e+04 4.890162484239e+06 
1.320000000100e+04 4.890164234668e+06 
1.350000000100e+04 4.890166019139e+06 
1.380000000100e+04 4.890167875687e+06 
1.410000000100e+04 4.890169860436e+06 
1.440000000100e+04 4.890172242218e+06 
1.470000000100e+04 4.890160779253e+06 
1.500000000100e+04 4.890161304382e+06 
1.530000000100e+04 4.890161770304e+06 
1.560000000100e+04 4.890162275683e+06 
1.590000000100e+04 4.890162791219e+06 
1.620000000100e+04 4.890163270689e+06 
1.650000000100e+04 4.890163810325e+06 
1.680000000100e+04 4.890160779253e+06 
1.710000000100e+04 4.890160779253e+06 
1.740000000100e+04 4.890160779253e+06 
1.770000000100e+04 4.890160779253e+06 
1.800000000100e+04 4.890160779253e+06 
1.830000000100e+04 4.890160779253e+06 
1.860000000100e+04 4.890160779253e+06 
