 TITLE = "Time curves in points"
 VARIABLES = "TIME "  "PRESSURE1" 
 ZONE T="POINT=POINTL4_MID"
0.000000000000e+00 0.000000000000e+00 
1.000000000000e-06 4.890109428772e+06 
3.000000010000e+02 4.890109428772e+06 
6.000000010000e+02 4.890109428772e+06 
9.000000010000e+02 4.890109428772e+06 
1.200000001000e+03 4.890109428772e+06 
1.500000001000e+03 4.890109428772e+06 
1.800000001000e+03 4.890109428772e+06 
2.100000001000e+03 4.890109428772e+06 
2.400000001000e+03 4.890108961132e+06 
2.700000001000e+03 4.890108533546e+06 
3.000000001000e+03 4.890108069314e+06 
3.300000001000e+03 4.890107597949e+06 
3.600000001000e+03 4.890107151800e+06 
3.900000001000e+03 4.890106666754e+06 
4.200000001000e+03 4.890109428772e+06 
4.500000001000e+03 4.890107881605e+06 
4.800000001000e+03 4.890106273565e+06 
5.100000001000e+03 4.890104582154e+06 
5.400000001000e+03 4.890102814952e+06 
5.700000001000e+03 4.890100990384e+06 
6.000000001000e+03 4.890099173228e+06 
6.300000001000e+03 4.890109428772e+06 
6.600000001000e+03 4.890106764445e+06 
6.900000001000e+03 4.890103851078e+06 
7.200000001000e+03 4.890100779839e+06 
7.500000001000e+03 4.890097754024e+06 
7.800000001000e+03 4.890094441906e+06 
8.100000001000e+03 4.890090886101e+06 
8.400000001000e+03 4.890109428772e+06 
8.700000001000e+03 4.890106273565e+06 
9.000000001000e+03 4.890102814952e+06 
9.300000001000e+03 4.890099173227e+06 
9.600000001000e+03 4.890095620571e+06 
9.900000001000e+03 4.890091386079e+06 
1.020000000100e+04 4.890086104659e+06 
1.050000000100e+04 4.890109428772e+06 
1.080000000100e+04 4.890106764445e+06 
1.110000000100e+04 4.890103851078e+06 
1.140000000100e+04 4.890100779839e+06 
1.170000000100e+04 4.890097754024e+06 
1.200000000100e+04 4.890094441906e+06 
1.230000000100e+04 4.890090886101e+06 
1.260000000100e+04 4.890109428773e+06 
1.290000000100e+04 4.890107881605e+06 
1.320000000100e+04 4.890106273565e+06 
1.350000000100e+04 4.890104582154e+06 
1.380000000100e+04 4.890102814952e+06 
1.410000000100e+04 4.890100990384e+06 
1.440000000100e+04 4.890099173228e+06 
1.470000000100e+04 4.890109428772e+06 
1.500000000100e+04 4.890108961132e+06 
1.530000000100e+04 4.890108533546e+06 
1.560000000100e+04 4.890108069314e+06 
1.590000000100e+04 4.890107597949e+06 
1.620000000100e+04 4.890107151800e+06 
1.650000000100e+04 4.890106666754e+06 
1.680000000100e+04 4.890109428772e+06 
1.710000000100e+04 4.890109428772e+06 
1.740000000100e+04 4.890109428772e+06 
1.770000000100e+04 4.890109428772e+06 
1.800000000100e+04 4.890109428772e+06 
1.830000000100e+04 4.890109428772e+06 
1.860000000100e+04 4.890109428772e+06 
