 TITLE = "Profiles along polylines"
 VARIABLES = "DIST" "PRESSURE1" 
 ZONE T="TIME=0.000000000000e+00"
0.000000000000e+00 0.000000000000e+00 
1.999999999998e+00 0.000000000000e+00 
3.999999999993e+00 0.000000000000e+00 
5.999999999987e+00 0.000000000000e+00 
7.999999999981e+00 0.000000000000e+00 
9.999999999976e+00 0.000000000000e+00 
1.199999999997e+01 0.000000000000e+00 
1.399999999996e+01 0.000000000000e+00 
1.599999999996e+01 0.000000000000e+00 
1.799999999995e+01 0.000000000000e+00 
1.999999999995e+01 0.000000000000e+00 
2.199999999994e+01 0.000000000000e+00 
2.399999999994e+01 0.000000000000e+00 
2.599999999993e+01 0.000000000000e+00 
2.799999999992e+01 0.000000000000e+00 
2.999999999992e+01 0.000000000000e+00 
3.199999999991e+01 0.000000000000e+00 
3.399999999992e+01 0.000000000000e+00 
3.599999999992e+01 0.000000000000e+00 
3.799999999993e+01 0.000000000000e+00 
3.999999999993e+01 0.000000000000e+00 
4.199999999994e+01 0.000000000000e+00 
4.399999999995e+01 0.000000000000e+00 
4.599999999995e+01 0.000000000000e+00 
4.799999999996e+01 0.000000000000e+00 
4.999999999996e+01 0.000000000000e+00 
5.199999999997e+01 0.000000000000e+00 
5.399999999997e+01 0.000000000000e+00 
5.599999999998e+01 0.000000000000e+00 
5.799999999998e+01 0.000000000000e+00 
5.999999999999e+01 0.000000000000e+00 
6.199999999999e+01 0.000000000000e+00 
6.400000000000e+01 0.000000000000e+00 
 TITLE = "Profiles along polylines"
 VARIABLES = "DIST" "PRESSURE1" 
 ZONE T="TIME=1.000000000000e-06"
0.000000000000e+00 4.890108853746e+06 
1.999999999998e+00 4.890109485062e+06 
3.999999999993e+00 4.890134633320e+06 
5.999999999987e+00 4.890159175481e+06 
7.999999999981e+00 4.890186704987e+06 
9.999999999976e+00 4.890195141105e+06 
1.199999999997e+01 4.890191926235e+06 
1.399999999996e+01 4.890209545348e+06 
1.599999999996e+01 4.890197384967e+06 
1.799999999995e+01 4.890171835476e+06 
1.999999999995e+01 4.890184887068e+06 
2.199999999994e+01 4.890169955244e+06 
2.399999999994e+01 4.890135465779e+06 
2.599999999993e+01 4.890124145834e+06 
2.799999999992e+01 4.890112177393e+06 
2.999999999992e+01 4.890100244691e+06 
3.199999999991e+01 4.890106711373e+06 
3.399999999992e+01 4.890145985666e+06 
3.599999999992e+01 4.890162556468e+06 
3.799999999993e+01 4.890148258961e+06 
3.999999999993e+01 4.890126606333e+06 
4.199999999994e+01 4.890097867807e+06 
4.399999999995e+01 4.890080881519e+06 
4.599999999995e+01 4.890096807883e+06 
4.799999999996e+01 4.890103541621e+06 
4.999999999996e+01 4.890113123045e+06 
5.199999999997e+01 4.890127838235e+06 
5.399999999997e+01 4.890130386478e+06 
5.599999999998e+01 4.890110690089e+06 
5.799999999998e+01 4.890060087986e+06 
5.999999999999e+01 4.890048692657e+06 
6.199999999999e+01 4.890046707699e+06 
6.400000000000e+01 4.890047659822e+06 
 ZONE T="TIME=3.000000010000e+02"
0.000000000000e+00 4.890108853746e+06 
1.999999999998e+00 4.890109485062e+06 
3.999999999993e+00 4.890134633320e+06 
5.999999999987e+00 4.890159175481e+06 
7.999999999981e+00 4.890186704987e+06 
9.999999999976e+00 4.890195141105e+06 
1.199999999997e+01 4.890191926235e+06 
1.399999999996e+01 4.890209545347e+06 
1.599999999996e+01 4.890197384967e+06 
1.799999999995e+01 4.890171835476e+06 
1.999999999995e+01 4.890184887068e+06 
2.199999999994e+01 4.890169955244e+06 
2.399999999994e+01 4.890135465779e+06 
2.599999999993e+01 4.890124145834e+06 
2.799999999992e+01 4.890112177393e+06 
2.999999999992e+01 4.890100244691e+06 
3.199999999991e+01 4.890106711373e+06 
3.399999999992e+01 4.890145985666e+06 
3.599999999992e+01 4.890162556468e+06 
3.799999999993e+01 4.890148258961e+06 
3.999999999993e+01 4.890126606333e+06 
4.199999999994e+01 4.890097867807e+06 
4.399999999995e+01 4.890080881519e+06 
4.599999999995e+01 4.890096807883e+06 
4.799999999996e+01 4.890103541621e+06 
4.999999999996e+01 4.890113123045e+06 
5.199999999997e+01 4.890127838235e+06 
5.399999999997e+01 4.890130386478e+06 
5.599999999998e+01 4.890110690089e+06 
5.799999999998e+01 4.890060087986e+06 
5.999999999999e+01 4.890048692657e+06 
6.199999999999e+01 4.890046707700e+06 
6.400000000000e+01 4.890047659822e+06 
 ZONE T="TIME=6.000000010000e+02"
0.000000000000e+00 4.890108853746e+06 
1.999999999998e+00 4.890109485062e+06 
3.999999999993e+00 4.890134633320e+06 
5.999999999987e+00 4.890159175481e+06 
7.999999999981e+00 4.890186704987e+06 
9.999999999976e+00 4.890195141105e+06 
1.199999999997e+01 4.890191926235e+06 
1.399999999996e+01 4.890209545348e+06 
1.599999999996e+01 4.890197384967e+06 
1.799999999995e+01 4.890171835476e+06 
1.999999999995e+01 4.890184887068e+06 
2.199999999994e+01 4.890169955244e+06 
2.399999999994e+01 4.890135465779e+06 
2.599999999993e+01 4.890124145834e+06 
2.799999999992e+01 4.890112177393e+06 
2.999999999992e+01 4.890100244691e+06 
3.199999999991e+01 4.890106711373e+06 
3.399999999992e+01 4.890145985666e+06 
3.599999999992e+01 4.890162556468e+06 
3.799999999993e+01 4.890148258961e+06 
3.999999999993e+01 4.890126606333e+06 
4.199999999994e+01 4.890097867807e+06 
4.399999999995e+01 4.890080881520e+06 
4.599999999995e+01 4.890096807883e+06 
4.799999999996e+01 4.890103541621e+06 
4.999999999996e+01 4.890113123045e+06 
5.199999999997e+01 4.890127838235e+06 
5.399999999997e+01 4.890130386478e+06 
5.599999999998e+01 4.890110690089e+06 
5.799999999998e+01 4.890060087986e+06 
5.999999999999e+01 4.890048692657e+06 
6.199999999999e+01 4.890046707700e+06 
6.400000000000e+01 4.890047659822e+06 
 ZONE T="TIME=9.000000010000e+02"
0.000000000000e+00 4.890108853746e+06 
1.999999999998e+00 4.890109485062e+06 
3.999999999993e+00 4.890134633320e+06 
5.999999999987e+00 4.890159175481e+06 
7.999999999981e+00 4.890186704987e+06 
9.999999999976e+00 4.890195141105e+06 
1.199999999997e+01 4.890191926235e+06 
1.399999999996e+01 4.890209545348e+06 
1.599999999996e+01 4.890197384967e+06 
1.799999999995e+01 4.890171835476e+06 
1.999999999995e+01 4.890184887068e+06 
2.199999999994e+01 4.890169955244e+06 
2.399999999994e+01 4.890135465779e+06 
2.599999999993e+01 4.890124145834e+06 
2.799999999992e+01 4.890112177393e+06 
2.999999999992e+01 4.890100244691e+06 
3.199999999991e+01 4.890106711373e+06 
3.399999999992e+01 4.890145985666e+06 
3.599999999992e+01 4.890162556468e+06 
3.799999999993e+01 4.890148258961e+06 
3.999999999993e+01 4.890126606333e+06 
4.199999999994e+01 4.890097867807e+06 
4.399999999995e+01 4.890080881520e+06 
4.599999999995e+01 4.890096807883e+06 
4.799999999996e+01 4.890103541621e+06 
4.999999999996e+01 4.890113123045e+06 
5.199999999997e+01 4.890127838235e+06 
5.399999999997e+01 4.890130386478e+06 
5.599999999998e+01 4.890110690089e+06 
5.799999999998e+01 4.890060087986e+06 
5.999999999999e+01 4.890048692657e+06 
6.199999999999e+01 4.890046707700e+06 
6.400000000000e+01 4.890047659822e+06 
 ZONE T="TIME=1.200000001000e+03"
0.000000000000e+00 4.890108853746e+06 
1.999999999998e+00 4.890109485062e+06 
3.999999999993e+00 4.890134633320e+06 
5.999999999987e+00 4.890159175481e+06 
7.999999999981e+00 4.890186704987e+06 
9.999999999976e+00 4.890195141105e+06 
1.199999999997e+01 4.890191926235e+06 
1.399999999996e+01 4.890209545347e+06 
1.599999999996e+01 4.890197384967e+06 
1.799999999995e+01 4.890171835476e+06 
1.999999999995e+01 4.890184887068e+06 
2.199999999994e+01 4.890169955244e+06 
2.399999999994e+01 4.890135465779e+06 
2.599999999993e+01 4.890124145834e+06 
2.799999999992e+01 4.890112177393e+06 
2.999999999992e+01 4.890100244691e+06 
3.199999999991e+01 4.890106711373e+06 
3.399999999992e+01 4.890145985666e+06 
3.599999999992e+01 4.890162556468e+06 
3.799999999993e+01 4.890148258961e+06 
3.999999999993e+01 4.890126606333e+06 
4.199999999994e+01 4.890097867807e+06 
4.399999999995e+01 4.890080881519e+06 
4.599999999995e+01 4.890096807883e+06 
4.799999999996e+01 4.890103541621e+06 
4.999999999996e+01 4.890113123045e+06 
5.199999999997e+01 4.890127838235e+06 
5.399999999997e+01 4.890130386478e+06 
5.599999999998e+01 4.890110690089e+06 
5.799999999998e+01 4.890060087986e+06 
5.999999999999e+01 4.890048692657e+06 
6.199999999999e+01 4.890046707700e+06 
6.400000000000e+01 4.890047659822e+06 
 ZONE T="TIME=1.500000001000e+03"
0.000000000000e+00 4.890108853746e+06 
1.999999999998e+00 4.890109485062e+06 
3.999999999993e+00 4.890134633320e+06 
5.999999999987e+00 4.890159175481e+06 
7.999999999981e+00 4.890186704987e+06 
9.999999999976e+00 4.890195141105e+06 
1.199999999997e+01 4.890191926235e+06 
1.399999999996e+01 4.890209545347e+06 
1.599999999996e+01 4.890197384967e+06 
1.799999999995e+01 4.890171835476e+06 
1.999999999995e+01 4.890184887068e+06 
2.199999999994e+01 4.890169955244e+06 
2.399999999994e+01 4.890135465779e+06 
2.599999999993e+01 4.890124145834e+06 
2.799999999992e+01 4.890112177393e+06 
2.999999999992e+01 4.890100244691e+06 
3.199999999991e+01 4.890106711373e+06 
3.399999999992e+01 4.890145985666e+06 
3.599999999992e+01 4.890162556468e+06 
3.799999999993e+01 4.890148258961e+06 
3.999999999993e+01 4.890126606333e+06 
4.199999999994e+01 4.890097867807e+06 
4.399999999995e+01 4.890080881519e+06 
4.599999999995e+01 4.890096807883e+06 
4.799999999996e+01 4.890103541621e+06 
4.999999999996e+01 4.890113123045e+06 
5.199999999997e+01 4.890127838235e+06 
5.399999999997e+01 4.890130386478e+06 
5.599999999998e+01 4.890110690089e+06 
5.799999999998e+01 4.890060087986e+06 
5.999999999999e+01 4.890048692657e+06 
6.199999999999e+01 4.890046707700e+06 
6.400000000000e+01 4.890047659822e+06 
 ZONE T="TIME=1.800000001000e+03"
0.000000000000e+00 4.890108853746e+06 
1.999999999998e+00 4.890109485062e+06 
3.999999999993e+00 4.890134633320e+06 
5.999999999987e+00 4.890159175481e+06 
7.999999999981e+00 4.890186704987e+06 
9.999999999976e+00 4.890195141105e+06 
1.199999999997e+01 4.890191926235e+06 
1.399999999996e+01 4.890209545348e+06 
1.599999999996e+01 4.890197384967e+06 
1.799999999995e+01 4.890171835476e+06 
1.999999999995e+01 4.890184887068e+06 
2.199999999994e+01 4.890169955244e+06 
2.399999999994e+01 4.890135465779e+06 
2.599999999993e+01 4.890124145834e+06 
2.799999999992e+01 4.890112177393e+06 
2.999999999992e+01 4.890100244691e+06 
3.199999999991e+01 4.890106711373e+06 
3.399999999992e+01 4.890145985666e+06 
3.599999999992e+01 4.890162556468e+06 
3.799999999993e+01 4.890148258961e+06 
3.999999999993e+01 4.890126606333e+06 
4.199999999994e+01 4.890097867807e+06 
4.399999999995e+01 4.890080881519e+06 
4.599999999995e+01 4.890096807883e+06 
4.799999999996e+01 4.890103541621e+06 
4.999999999996e+01 4.890113123045e+06 
5.199999999997e+01 4.890127838235e+06 
5.399999999997e+01 4.890130386478e+06 
5.599999999998e+01 4.890110690089e+06 
5.799999999998e+01 4.890060087986e+06 
5.999999999999e+01 4.890048692657e+06 
6.199999999999e+01 4.890046707700e+06 
6.400000000000e+01 4.890047659822e+06 
 ZONE T="TIME=2.100000001000e+03"
0.000000000000e+00 4.890108853746e+06 
1.999999999998e+00 4.890109485062e+06 
3.999999999993e+00 4.890134633320e+06 
5.999999999987e+00 4.890159175481e+06 
7.999999999981e+00 4.890186704987e+06 
9.999999999976e+00 4.890195141105e+06 
1.199999999997e+01 4.890191926235e+06 
1.399999999996e+01 4.890209545348e+06 
1.599999999996e+01 4.890197384967e+06 
1.799999999995e+01 4.890171835476e+06 
1.999999999995e+01 4.890184887068e+06 
2.199999999994e+01 4.890169955244e+06 
2.399999999994e+01 4.890135465779e+06 
2.599999999993e+01 4.890124145834e+06 
2.799999999992e+01 4.890112177393e+06 
2.999999999992e+01 4.890100244691e+06 
3.199999999991e+01 4.890106711373e+06 
3.399999999992e+01 4.890145985666e+06 
3.599999999992e+01 4.890162556468e+06 
3.799999999993e+01 4.890148258961e+06 
3.999999999993e+01 4.890126606333e+06 
4.199999999994e+01 4.890097867807e+06 
4.399999999995e+01 4.890080881520e+06 
4.599999999995e+01 4.890096807883e+06 
4.799999999996e+01 4.890103541621e+06 
4.999999999996e+01 4.890113123045e+06 
5.199999999997e+01 4.890127838235e+06 
5.399999999997e+01 4.890130386478e+06 
5.599999999998e+01 4.890110690089e+06 
5.799999999998e+01 4.890060087986e+06 
5.999999999999e+01 4.890048692657e+06 
6.199999999999e+01 4.890046707700e+06 
6.400000000000e+01 4.890047659822e+06 
 ZONE T="TIME=2.400000001000e+03"
0.000000000000e+00 4.890107828351e+06 
1.999999999998e+00 4.890108505117e+06 
3.999999999993e+00 4.890134275118e+06 
5.999999999987e+00 4.890159742982e+06 
7.999999999981e+00 4.890188636856e+06 
9.999999999976e+00 4.890197416101e+06 
1.199999999997e+01 4.890193851265e+06 
1.399999999996e+01 4.890212158549e+06 
1.599999999996e+01 4.890199290077e+06 
1.799999999995e+01 4.890172500626e+06 
1.999999999995e+01 4.890186149096e+06 
2.199999999994e+01 4.890170601923e+06 
2.399999999994e+01 4.890134853236e+06 
2.599999999993e+01 4.890123325062e+06 
2.799999999992e+01 4.890111188416e+06 
2.999999999992e+01 4.890099108394e+06 
3.199999999991e+01 4.890105965025e+06 
3.399999999992e+01 4.890146769747e+06 
3.599999999992e+01 4.890164409934e+06 
3.799999999993e+01 4.890149662503e+06 
3.999999999993e+01 4.890127205737e+06 
4.199999999994e+01 4.890091515606e+06 
4.399999999995e+01 4.890073894113e+06 
4.599999999995e+01 4.890096783495e+06 
4.799999999996e+01 4.890103912876e+06 
4.999999999996e+01 4.890113641522e+06 
5.199999999997e+01 4.890128874208e+06 
5.399999999997e+01 4.890131502643e+06 
5.599999999998e+01 4.890111142564e+06 
5.799999999998e+01 4.890059523936e+06 
5.999999999999e+01 4.890047933837e+06 
6.199999999999e+01 4.890045962429e+06 
6.400000000000e+01 4.890046982855e+06 
 ZONE T="TIME=2.700000001000e+03"
0.000000000000e+00 4.890105174120e+06 
1.999999999998e+00 4.890105722549e+06 
3.999999999993e+00 4.890131150756e+06 
5.999999999987e+00 4.890156848470e+06 
7.999999999981e+00 4.890186992707e+06 
9.999999999976e+00 4.890197019026e+06 
1.199999999997e+01 4.890194993371e+06 
1.399999999996e+01 4.890215232053e+06 
1.599999999996e+01 4.890202074397e+06 
1.799999999995e+01 4.890174018457e+06 
1.999999999995e+01 4.890188319352e+06 
2.199999999994e+01 4.890172052428e+06 
2.399999999994e+01 4.890134850426e+06 
2.599999999993e+01 4.890123018845e+06 
2.799999999992e+01 4.890110614087e+06 
2.999999999992e+01 4.890098266193e+06 
3.199999999991e+01 4.890105387897e+06 
3.399999999992e+01 4.890147515873e+06 
3.599999999992e+01 4.890166049214e+06 
3.799999999993e+01 4.890150828468e+06 
3.999999999993e+01 4.890127593638e+06 
4.199999999994e+01 4.890091326236e+06 
4.399999999995e+01 4.890073414212e+06 
4.599999999995e+01 4.890096418529e+06 
4.799999999996e+01 4.890103774840e+06 
4.999999999996e+01 4.890113714102e+06 
5.199999999997e+01 4.890129522039e+06 
5.399999999997e+01 4.890132319937e+06 
5.599999999998e+01 4.890111395101e+06 
5.799999999998e+01 4.890058960212e+06 
5.999999999999e+01 4.890047232680e+06 
6.199999999999e+01 4.890045299159e+06 
6.400000000000e+01 4.890046392557e+06 
 ZONE T="TIME=3.000000001000e+03"
0.000000000000e+00 4.890104056684e+06 
1.999999999998e+00 4.890104660248e+06 
3.999999999993e+00 4.890130710654e+06 
5.999999999987e+00 4.890157384108e+06 
7.999999999981e+00 4.890189037115e+06 
9.999999999976e+00 4.890199416217e+06 
1.199999999997e+01 4.890196943403e+06 
1.399999999996e+01 4.890217871496e+06 
1.599999999996e+01 4.890203905321e+06 
1.799999999995e+01 4.890174484393e+06 
1.999999999995e+01 4.890189409694e+06 
2.199999999994e+01 4.890172476743e+06 
2.399999999994e+01 4.890133938004e+06 
2.599999999993e+01 4.890121889296e+06 
2.799999999992e+01 4.890109308648e+06 
2.999999999992e+01 4.890096778007e+06 
3.199999999991e+01 4.890104185325e+06 
3.399999999992e+01 4.890147561242e+06 
3.599999999992e+01 4.890167011659e+06 
3.799999999993e+01 4.890151358954e+06 
3.999999999993e+01 4.890127385756e+06 
4.199999999994e+01 4.890090682077e+06 
4.399999999995e+01 4.890072548127e+06 
4.599999999995e+01 4.890095565096e+06 
4.799999999996e+01 4.890103135562e+06 
4.999999999996e+01 4.890113246938e+06 
5.199999999997e+01 4.890129603625e+06 
5.399999999997e+01 4.890132563949e+06 
5.599999999998e+01 4.890111118969e+06 
5.799999999998e+01 4.890058085520e+06 
5.999999999999e+01 4.890046266646e+06 
6.199999999999e+01 4.890044378857e+06 
6.400000000000e+01 4.890045537200e+06 
 ZONE T="TIME=3.300000001000e+03"
0.000000000000e+00 4.890102383468e+06 
1.999999999998e+00 4.890102963827e+06 
3.999999999993e+00 4.890129299499e+06 
5.999999999987e+00 4.890156909987e+06 
7.999999999981e+00 4.890190598445e+06 
9.999999999976e+00 4.890201955995e+06 
1.199999999997e+01 4.890199903221e+06 
1.399999999996e+01 4.890222410517e+06 
1.599999999996e+01 4.890207883850e+06 
1.799999999995e+01 4.890177172131e+06 
1.999999999995e+01 4.890193358170e+06 
2.199999999994e+01 4.890175299583e+06 
2.399999999994e+01 4.890133305590e+06 
2.599999999993e+01 4.890118293455e+06 
2.799999999992e+01 4.890105033077e+06 
2.999999999992e+01 4.890093498173e+06 
3.199999999991e+01 4.890103405772e+06 
3.399999999992e+01 4.890149395274e+06 
3.599999999992e+01 4.890170196413e+06 
3.799999999993e+01 4.890153337936e+06 
3.999999999993e+01 4.890125734349e+06 
4.199999999994e+01 4.890088772844e+06 
4.399999999995e+01 4.890071371181e+06 
4.599999999995e+01 4.890094989864e+06 
4.799999999996e+01 4.890103460507e+06 
4.999999999996e+01 4.890112406516e+06 
5.199999999997e+01 4.890127416040e+06 
5.399999999997e+01 4.890128688126e+06 
5.599999999998e+01 4.890107214120e+06 
5.799999999998e+01 4.890056850957e+06 
5.999999999999e+01 4.890046307970e+06 
6.199999999999e+01 4.890045502475e+06 
6.400000000000e+01 4.890047161985e+06 
 ZONE T="TIME=3.600000001000e+03"
0.000000000000e+00 4.890101964494e+06 
1.999999999998e+00 4.890102623505e+06 
3.999999999993e+00 4.890129745792e+06 
5.999999999987e+00 4.890158537397e+06 
7.999999999981e+00 4.890194061934e+06 
9.999999999976e+00 4.890205849586e+06 
1.199999999997e+01 4.890203269402e+06 
1.399999999996e+01 4.890226632873e+06 
1.599999999996e+01 4.890211163266e+06 
1.799999999995e+01 4.890178860554e+06 
1.999999999995e+01 4.890195906273e+06 
2.199999999994e+01 4.890177118576e+06 
2.399999999994e+01 4.890133617562e+06 
2.599999999993e+01 4.890118623539e+06 
2.799999999992e+01 4.890105226126e+06 
2.999999999992e+01 4.890092206650e+06 
3.199999999991e+01 4.890099915132e+06 
3.399999999992e+01 4.890144382495e+06 
3.599999999992e+01 4.890165994161e+06 
3.799999999993e+01 4.890153017646e+06 
3.999999999993e+01 4.890125861653e+06 
4.199999999994e+01 4.890088598978e+06 
4.399999999995e+01 4.890070787388e+06 
4.599999999995e+01 4.890094407827e+06 
4.799999999996e+01 4.890102893275e+06 
4.999999999996e+01 4.890111627172e+06 
5.199999999997e+01 4.890126751047e+06 
5.399999999997e+01 4.890127777418e+06 
5.599999999998e+01 4.890105817579e+06 
5.799999999998e+01 4.890055150189e+06 
5.999999999999e+01 4.890044397697e+06 
6.199999999999e+01 4.890043413292e+06 
6.400000000000e+01 4.890044980728e+06 
 ZONE T="TIME=3.900000001000e+03"
0.000000000000e+00 4.890101716716e+06 
1.999999999998e+00 4.890102471614e+06 
3.999999999993e+00 4.890130515306e+06 
5.999999999987e+00 4.890160690881e+06 
7.999999999981e+00 4.890198391340e+06 
9.999999999976e+00 4.890210680200e+06 
1.199999999997e+01 4.890207464217e+06 
1.399999999996e+01 4.890231816260e+06 
1.599999999996e+01 4.890215210533e+06 
1.799999999995e+01 4.890180977763e+06 
1.999999999995e+01 4.890198924158e+06 
2.199999999994e+01 4.890179207711e+06 
2.399999999994e+01 4.890133851943e+06 
2.599999999993e+01 4.890118642010e+06 
2.799999999992e+01 4.890105054629e+06 
2.999999999992e+01 4.890091829427e+06 
3.199999999991e+01 4.890100117920e+06 
3.399999999992e+01 4.890146727306e+06 
3.599999999992e+01 4.890169871376e+06 
3.799999999993e+01 4.890156344187e+06 
3.999999999993e+01 4.890128008689e+06 
4.199999999994e+01 4.890089623848e+06 
4.399999999995e+01 4.890071195820e+06 
4.599999999995e+01 4.890095009087e+06 
4.799999999996e+01 4.890103072325e+06 
4.999999999996e+01 4.890110381776e+06 
5.199999999997e+01 4.890124356532e+06 
5.399999999997e+01 4.890123792642e+06 
5.599999999998e+01 4.890100867439e+06 
5.799999999998e+01 4.890048746809e+06 
5.999999999999e+01 4.890035803072e+06 
6.199999999999e+01 4.890031589230e+06 
6.400000000000e+01 4.890031228367e+06 
 ZONE T="TIME=4.200000001000e+03"
0.000000000000e+00 4.890108853746e+06 
1.999999999998e+00 4.890109485062e+06 
3.999999999993e+00 4.890134633320e+06 
5.999999999987e+00 4.890159175481e+06 
7.999999999981e+00 4.890186704986e+06 
9.999999999976e+00 4.890195141105e+06 
1.199999999997e+01 4.890191926235e+06 
1.399999999996e+01 4.890209545347e+06 
1.599999999996e+01 4.890197384966e+06 
1.799999999995e+01 4.890171835476e+06 
1.999999999995e+01 4.890184887068e+06 
2.199999999994e+01 4.890169955244e+06 
2.399999999994e+01 4.890135465779e+06 
2.599999999993e+01 4.890124145834e+06 
2.799999999992e+01 4.890112177393e+06 
2.999999999992e+01 4.890100244691e+06 
3.199999999991e+01 4.890106711373e+06 
3.399999999992e+01 4.890145985666e+06 
3.599999999992e+01 4.890162556468e+06 
3.799999999993e+01 4.890148258961e+06 
3.999999999993e+01 4.890126606333e+06 
4.199999999994e+01 4.890097867807e+06 
4.399999999995e+01 4.890080881520e+06 
4.599999999995e+01 4.890096807883e+06 
4.799999999996e+01 4.890103541621e+06 
4.999999999996e+01 4.890113123045e+06 
5.199999999997e+01 4.890127838235e+06 
5.399999999997e+01 4.890130386478e+06 
5.599999999998e+01 4.890110690089e+06 
5.799999999998e+01 4.890060087986e+06 
5.999999999999e+01 4.890048692657e+06 
6.199999999999e+01 4.890046707700e+06 
6.400000000000e+01 4.890047659822e+06 
 ZONE T="TIME=4.500000001000e+03"
0.000000000000e+00 4.890103046091e+06 
1.999999999998e+00 4.890103589174e+06 
3.999999999993e+00 4.890129542097e+06 
5.999999999987e+00 4.890156538818e+06 
7.999999999981e+00 4.890189252291e+06 
9.999999999976e+00 4.890200396342e+06 
1.199999999997e+01 4.890198660389e+06 
1.399999999996e+01 4.890220745982e+06 
1.599999999996e+01 4.890206755985e+06 
1.799999999995e+01 4.890176933986e+06 
1.999999999995e+01 4.890192726717e+06 
2.199999999994e+01 4.890175089949e+06 
2.399999999994e+01 4.890133900146e+06 
2.599999999993e+01 4.890118967949e+06 
2.799999999992e+01 4.890105798685e+06 
2.999999999992e+01 4.890094406568e+06 
3.199999999991e+01 4.890104184002e+06 
3.399999999992e+01 4.890149427589e+06 
3.599999999992e+01 4.890169645638e+06 
3.799999999993e+01 4.890153049239e+06 
3.999999999993e+01 4.890125884394e+06 
4.199999999994e+01 4.890089166705e+06 
4.399999999995e+01 4.890071892600e+06 
4.599999999995e+01 4.890095503233e+06 
4.799999999996e+01 4.890103864807e+06 
4.999999999996e+01 4.890112711287e+06 
5.199999999997e+01 4.890127389887e+06 
5.399999999997e+01 4.890128580897e+06 
5.599999999998e+01 4.890107414633e+06 
5.799999999998e+01 4.890057376171e+06 
5.999999999999e+01 4.890046891235e+06 
6.199999999999e+01 4.890046059960e+06 
6.400000000000e+01 4.890047676385e+06 
 ZONE T="TIME=4.800000001000e+03"
0.000000000000e+00 4.890103528146e+06 
1.999999999998e+00 4.890103796575e+06 
3.999999999993e+00 4.890131297449e+06 
5.999999999987e+00 4.890162283920e+06 
7.999999999981e+00 4.890203136868e+06 
9.999999999976e+00 4.890216905783e+06 
1.199999999997e+01 4.890214002943e+06 
1.399999999996e+01 4.890240034040e+06 
1.599999999996e+01 4.890222337528e+06 
1.799999999995e+01 4.890185945037e+06 
1.999999999995e+01 4.890205039265e+06 
2.199999999994e+01 4.890183804296e+06 
2.399999999994e+01 4.890134876536e+06 
2.599999999993e+01 4.890116314861e+06 
2.799999999992e+01 4.890098087595e+06 
2.999999999992e+01 4.890071796386e+06 
3.199999999991e+01 4.890080162919e+06 
3.399999999992e+01 4.890143213127e+06 
3.599999999992e+01 4.890172595921e+06 
3.799999999993e+01 4.890161156508e+06 
3.999999999993e+01 4.890132678417e+06 
4.199999999994e+01 4.890092728962e+06 
4.399999999995e+01 4.890073290729e+06 
4.599999999995e+01 4.890097924180e+06 
4.799999999996e+01 4.890105659654e+06 
4.999999999996e+01 4.890111164210e+06 
5.199999999997e+01 4.890122394805e+06 
5.399999999997e+01 4.890117650761e+06 
5.599999999998e+01 4.890093892764e+06 
5.799999999998e+01 4.890044466879e+06 
5.999999999999e+01 4.890032529281e+06 
6.199999999999e+01 4.890029743410e+06 
6.400000000000e+01 4.890030065826e+06 
 ZONE T="TIME=5.100000001000e+03"
0.000000000000e+00 4.890109852559e+06 
1.999999999998e+00 4.890107447504e+06 
3.999999999993e+00 4.890132350429e+06 
5.999999999987e+00 4.890168081890e+06 
7.999999999981e+00 4.890231466957e+06 
9.999999999976e+00 4.890255111384e+06 
1.199999999997e+01 4.890256000297e+06 
1.399999999996e+01 4.890294186949e+06 
1.599999999996e+01 4.890270755174e+06 
1.799999999995e+01 4.890221887688e+06 
1.999999999995e+01 4.890249064361e+06 
2.199999999994e+01 4.890184561067e+06 
2.399999999994e+01 4.890079513552e+06 
2.599999999993e+01 4.890080518502e+06 
2.799999999992e+01 4.890078153751e+06 
2.999999999992e+01 4.890050273184e+06 
3.199999999991e+01 4.890078947573e+06 
3.399999999992e+01 4.890161123075e+06 
3.599999999992e+01 4.890203526836e+06 
3.799999999993e+01 4.890188363826e+06 
3.999999999993e+01 4.890149751584e+06 
4.199999999994e+01 4.890098104411e+06 
4.399999999995e+01 4.890058535090e+06 
4.599999999995e+01 4.890090877539e+06 
4.799999999996e+01 4.890111046389e+06 
4.999999999996e+01 4.890091935786e+06 
5.199999999997e+01 4.890082670139e+06 
5.399999999997e+01 4.890065606594e+06 
5.599999999998e+01 4.890046956809e+06 
5.799999999998e+01 4.890016280348e+06 
5.999999999999e+01 4.890007104730e+06 
6.199999999999e+01 4.890002545878e+06 
6.400000000000e+01 4.890000066039e+06 
 ZONE T="TIME=5.400000001000e+03"
0.000000000000e+00 4.890038365501e+06 
1.999999999998e+00 4.890049079000e+06 
3.999999999993e+00 4.890109384642e+06 
5.999999999987e+00 4.890184975354e+06 
7.999999999981e+00 4.890291769955e+06 
9.999999999976e+00 4.890332643020e+06 
1.199999999997e+01 4.890334472965e+06 
1.399999999996e+01 4.890389202114e+06 
1.599999999996e+01 4.890300630713e+06 
1.799999999995e+01 4.890163503550e+06 
1.999999999995e+01 4.890260071189e+06 
2.199999999994e+01 4.890232813325e+06 
2.399999999994e+01 4.890077920704e+06 
2.599999999993e+01 4.890037185868e+06 
2.799999999992e+01 4.890020988025e+06 
2.999999999992e+01 4.890020162871e+06 
3.199999999991e+01 4.890034385237e+06 
3.399999999992e+01 4.890078525759e+06 
3.599999999992e+01 4.890145847653e+06 
3.799999999993e+01 4.890172800629e+06 
3.999999999993e+01 4.890146447547e+06 
4.199999999994e+01 4.890097803005e+06 
4.399999999995e+01 4.890059932266e+06 
4.599999999995e+01 4.890096306495e+06 
4.799999999996e+01 4.890118979942e+06 
4.999999999996e+01 4.890109498029e+06 
5.199999999997e+01 4.890104758154e+06 
5.399999999997e+01 4.890084433236e+06 
5.599999999998e+01 4.890059930241e+06 
5.799999999998e+01 4.890021074181e+06 
5.999999999999e+01 4.890009192085e+06 
6.199999999999e+01 4.890003453194e+06 
6.400000000000e+01 4.890000709790e+06 
 ZONE T="TIME=5.700000001000e+03"
0.000000000000e+00 4.890040026463e+06 
1.999999999998e+00 4.890051349070e+06 
3.999999999993e+00 4.890113811543e+06 
5.999999999987e+00 4.890195905398e+06 
7.999999999981e+00 4.890318002531e+06 
9.999999999976e+00 4.890358350181e+06 
1.199999999997e+01 4.890350859110e+06 
1.399999999996e+01 4.890409460491e+06 
1.599999999996e+01 4.890315283905e+06 
1.799999999995e+01 4.890168186079e+06 
1.999999999995e+01 4.890261044165e+06 
2.199999999994e+01 4.890231680584e+06 
2.399999999994e+01 4.890077569624e+06 
2.599999999993e+01 4.890036704839e+06 
2.799999999992e+01 4.890020054363e+06 
2.999999999992e+01 4.890018128173e+06 
3.199999999991e+01 4.890029030457e+06 
3.399999999992e+01 4.890069288110e+06 
3.599999999992e+01 4.890132448627e+06 
3.799999999993e+01 4.890155375341e+06 
3.999999999993e+01 4.890105035245e+06 
4.199999999994e+01 4.890048591137e+06 
4.399999999995e+01 4.890045182619e+06 
4.599999999995e+01 4.890094369644e+06 
4.799999999996e+01 4.890105490036e+06 
4.999999999996e+01 4.890096779417e+06 
5.199999999997e+01 4.890121798681e+06 
5.399999999997e+01 4.890102877379e+06 
5.599999999998e+01 4.890072894840e+06 
5.799999999998e+01 4.890025619838e+06 
5.999999999999e+01 4.890011284979e+06 
6.199999999999e+01 4.890004498906e+06 
6.400000000000e+01 4.890001480099e+06 
 ZONE T="TIME=6.000000001000e+03"
0.000000000000e+00 4.890040215788e+06 
1.999999999998e+00 4.890051936616e+06 
3.999999999993e+00 4.890107740240e+06 
5.999999999987e+00 4.890219865282e+06 
7.999999999981e+00 4.890433737935e+06 
9.999999999976e+00 4.890487929902e+06 
1.199999999997e+01 4.890343797998e+06 
1.399999999996e+01 4.890422532080e+06 
1.599999999996e+01 4.890371414596e+06 
1.799999999995e+01 4.890123767195e+06 
1.999999999995e+01 4.890055895499e+06 
2.199999999994e+01 4.890024757603e+06 
2.399999999994e+01 4.890011815411e+06 
2.599999999993e+01 4.890007466077e+06 
2.799999999992e+01 4.890008550782e+06 
2.999999999992e+01 4.890015879213e+06 
3.199999999991e+01 4.890034322707e+06 
3.399999999992e+01 4.890087815059e+06 
3.599999999992e+01 4.890174819717e+06 
3.799999999993e+01 4.890197089629e+06 
3.999999999993e+01 4.890125062082e+06 
4.199999999994e+01 4.890048125179e+06 
4.399999999995e+01 4.890028341370e+06 
4.599999999995e+01 4.890028255548e+06 
4.799999999996e+01 4.890047803844e+06 
4.999999999996e+01 4.890124301489e+06 
5.199999999997e+01 4.890193892540e+06 
5.399999999997e+01 4.890173778843e+06 
5.599999999998e+01 4.890123290094e+06 
5.799999999998e+01 4.890043350876e+06 
5.999999999999e+01 4.890019443929e+06 
6.199999999999e+01 4.890008565003e+06 
6.400000000000e+01 4.890004512721e+06 
 ZONE T="TIME=6.300000001000e+03"