 TITLE = "Profiles along polylines"
 VARIABLES = "DIST" "PRESSURE1" 
 ZONE T="TIME=0.000000000000e+00"
0.000000000000e+00 0.000000000000e+00 
1.999999999998e+00 0.000000000000e+00 
3.999999999993e+00 0.000000000000e+00 
5.999999999987e+00 0.000000000000e+00 
7.999999999981e+00 0.000000000000e+00 
9.999999999976e+00 0.000000000000e+00 
1.199999999997e+01 0.000000000000e+00 
1.399999999996e+01 0.000000000000e+00 
1.599999999996e+01 0.000000000000e+00 
1.799999999995e+01 0.000000000000e+00 
1.999999999995e+01 0.000000000000e+00 
2.199999999994e+01 0.000000000000e+00 
2.399999999994e+01 0.000000000000e+00 
2.599999999993e+01 0.000000000000e+00 
2.799999999992e+01 0.000000000000e+00 
2.999999999992e+01 0.000000000000e+00 
3.199999999991e+01 0.000000000000e+00 
3.399999999992e+01 0.000000000000e+00 
3.599999999992e+01 0.000000000000e+00 
3.799999999993e+01 0.000000000000e+00 
3.999999999993e+01 0.000000000000e+00 
4.199999999994e+01 0.000000000000e+00 
4.399999999995e+01 0.000000000000e+00 
4.599999999995e+01 0.000000000000e+00 
4.799999999996e+01 0.000000000000e+00 
4.999999999996e+01 0.000000000000e+00 
5.199999999997e+01 0.000000000000e+00 
5.399999999997e+01 0.000000000000e+00 
5.599999999998e+01 0.000000000000e+00 
5.799999999998e+01 0.000000000000e+00 
5.999999999999e+01 0.000000000000e+00 
6.199999999999e+01 0.000000000000e+00 
6.400000000000e+01 0.000000000000e+00 
 TITLE = "Profiles along polylines"
 VARIABLES = "DIST" "PRESSURE1" 
 ZONE T="TIME=1.000000000000e-06"
0.000000000000e+00 4.890108411360e+06 
1.999999999998e+00 4.890108991118e+06 
3.999999999993e+00 4.890133896047e+06 
5.999999999987e+00 4.890158111884e+06 
7.999999999981e+00 4.890185133743e+06 
9.999999999976e+00 4.890193248342e+06 
1.199999999997e+01 4.890189773364e+06 
1.399999999996e+01 4.890206988974e+06 
1.599999999996e+01 4.890194859748e+06 
1.799999999995e+01 4.890169522613e+06 
1.999999999995e+01 4.890182320805e+06 
2.199999999994e+01 4.890167538796e+06 
2.399999999994e+01 4.890133477163e+06 
2.599999999993e+01 4.890122263958e+06 
2.799999999992e+01 4.890110405368e+06 
2.999999999992e+01 4.890098566849e+06 
3.199999999991e+01 4.890104809635e+06 
3.399999999992e+01 4.890143241199e+06 
3.599999999992e+01 4.890159383659e+06 
3.799999999993e+01 4.890145225524e+06 
3.999999999993e+01 4.890123865908e+06 
4.199999999994e+01 4.890095635216e+06 
4.399999999995e+01 4.890078905827e+06 
4.599999999995e+01 4.890094410564e+06 
4.799999999996e+01 4.890101169940e+06 
4.999999999996e+01 4.890111106225e+06 
5.199999999997e+01 4.890126412804e+06 
5.399999999997e+01 4.890130289259e+06 
5.599999999998e+01 4.890112251700e+06 
5.799999999998e+01 4.890067078459e+06 
5.999999999999e+01 4.890061256521e+06 
6.199999999999e+01 4.890067198449e+06 
6.400000000000e+01 4.890072326501e+06 
 ZONE T="TIME=3.000000010000e+02"
0.000000000000e+00 4.890108411360e+06 
1.999999999998e+00 4.890108991118e+06 
3.999999999993e+00 4.890133896047e+06 
5.999999999987e+00 4.890158111884e+06 
7.999999999981e+00 4.890185133743e+06 
9.999999999976e+00 4.890193248342e+06 
1.199999999997e+01 4.890189773364e+06 
1.399999999996e+01 4.890206988974e+06 
1.599999999996e+01 4.890194859748e+06 
1.799999999995e+01 4.890169522613e+06 
1.999999999995e+01 4.890182320805e+06 
2.199999999994e+01 4.890167538796e+06 
2.399999999994e+01 4.890133477163e+06 
2.599999999993e+01 4.890122263958e+06 
2.799999999992e+01 4.890110405368e+06 
2.999999999992e+01 4.890098566849e+06 
3.199999999991e+01 4.890104809635e+06 
3.399999999992e+01 4.890143241199e+06 
3.599999999992e+01 4.890159383659e+06 
3.799999999993e+01 4.890145225524e+06 
3.999999999993e+01 4.890123865908e+06 
4.199999999994e+01 4.890095635216e+06 
4.399999999995e+01 4.890078905827e+06 
4.599999999995e+01 4.890094410564e+06 
4.799999999996e+01 4.890101169940e+06 
4.999999999996e+01 4.890111106225e+06 
5.199999999997e+01 4.890126412804e+06 
5.399999999997e+01 4.890130289259e+06 
5.599999999998e+01 4.890112251700e+06 
5.799999999998e+01 4.890067078459e+06 
5.999999999999e+01 4.890061256521e+06 
6.199999999999e+01 4.890067198449e+06 
6.400000000000e+01 4.890072326501e+06 
 ZONE T="TIME=6.000000010000e+02"
0.000000000000e+00 4.890108411360e+06 
1.999999999998e+00 4.890108991118e+06 
3.999999999993e+00 4.890133896047e+06 
5.999999999987e+00 4.890158111884e+06 
7.999999999981e+00 4.890185133743e+06 
9.999999999976e+00 4.890193248342e+06 
1.199999999997e+01 4.890189773364e+06 
1.399999999996e+01 4.890206988973e+06 
1.599999999996e+01 4.890194859748e+06 
1.799999999995e+01 4.890169522613e+06 
1.999999999995e+01 4.890182320805e+06 
2.199999999994e+01 4.890167538796e+06 
2.399999999994e+01 4.890133477163e+06 
2.599999999993e+01 4.890122263958e+06 
2.799999999992e+01 4.890110405368e+06 
2.999999999992e+01 4.890098566849e+06 
3.199999999991e+01 4.890104809635e+06 
3.399999999992e+01 4.890143241199e+06 
3.599999999992e+01 4.890159383659e+06 
3.799999999993e+01 4.890145225524e+06 
3.999999999993e+01 4.890123865908e+06 
4.199999999994e+01 4.890095635216e+06 
4.399999999995e+01 4.890078905827e+06 
4.599999999995e+01 4.890094410564e+06 
4.799999999996e+01 4.890101169940e+06 
4.999999999996e+01 4.890111106225e+06 
5.199999999997e+01 4.890126412804e+06 
5.399999999997e+01 4.890130289259e+06 
5.599999999998e+01 4.890112251700e+06 
5.799999999998e+01 4.890067078459e+06 
5.999999999999e+01 4.890061256521e+06 
6.199999999999e+01 4.890067198449e+06 
6.400000000000e+01 4.890072326501e+06 
 ZONE T="TIME=9.000000010000e+02"
0.000000000000e+00 4.890108411360e+06 
1.999999999998e+00 4.890108991118e+06 
3.999999999993e+00 4.890133896047e+06 
5.999999999987e+00 4.890158111884e+06 
7.999999999981e+00 4.890185133743e+06 
9.999999999976e+00 4.890193248342e+06 
1.199999999997e+01 4.890189773364e+06 
1.399999999996e+01 4.890206988973e+06 
1.599999999996e+01 4.890194859748e+06 
1.799999999995e+01 4.890169522613e+06 
1.999999999995e+01 4.890182320805e+06 
2.199999999994e+01 4.890167538796e+06 
2.399999999994e+01 4.890133477163e+06 
2.599999999993e+01 4.890122263958e+06 
2.799999999992e+01 4.890110405368e+06 
2.999999999992e+01 4.890098566849e+06 
3.199999999991e+01 4.890104809635e+06 
3.399999999992e+01 4.890143241199e+06 
3.599999999992e+01 4.890159383659e+06 
3.799999999993e+01 4.890145225524e+06 
3.999999999993e+01 4.890123865908e+06 
4.199999999994e+01 4.890095635216e+06 
4.399999999995e+01 4.890078905827e+06 
4.599999999995e+01 4.890094410564e+06 
4.799999999996e+01 4.890101169940e+06 
4.999999999996e+01 4.890111106225e+06 
5.199999999997e+01 4.890126412804e+06 
5.399999999997e+01 4.890130289259e+06 
5.599999999998e+01 4.890112251700e+06 
5.799999999998e+01 4.890067078459e+06 
5.999999999999e+01 4.890061256521e+06 
6.199999999999e+01 4.890067198449e+06 
6.400000000000e+01 4.890072326501e+06 
 ZONE T="TIME=1.200000001000e+03"
0.000000000000e+00 4.890108411360e+06 
1.999999999998e+00 4.890108991118e+06 
3.999999999993e+00 4.890133896047e+06 
5.999999999987e+00 4.890158111884e+06 
7.999999999981e+00 4.890185133743e+06 
9.999999999976e+00 4.890193248342e+06 
1.199999999997e+01 4.890189773364e+06 
1.399999999996e+01 4.890206988974e+06 
1.599999999996e+01 4.890194859748e+06 
1.799999999995e+01 4.890169522613e+06 
1.999999999995e+01 4.890182320805e+06 
2.199999999994e+01 4.890167538796e+06 
2.399999999994e+01 4.890133477163e+06 
2.599999999993e+01 4.890122263958e+06 
2.799999999992e+01 4.890110405368e+06 
2.999999999992e+01 4.890098566849e+06 
3.199999999991e+01 4.890104809635e+06 
3.399999999992e+01 4.890143241199e+06 
3.599999999992e+01 4.890159383659e+06 
3.799999999993e+01 4.890145225524e+06 
3.999999999993e+01 4.890123865908e+06 
4.199999999994e+01 4.890095635216e+06 
4.399999999995e+01 4.890078905827e+06 
4.599999999995e+01 4.890094410564e+06 
4.799999999996e+01 4.890101169940e+06 
4.999999999996e+01 4.890111106225e+06 
5.199999999997e+01 4.890126412804e+06 
5.399999999997e+01 4.890130289259e+06 
5.599999999998e+01 4.890112251700e+06 
5.799999999998e+01 4.890067078459e+06 
5.999999999999e+01 4.890061256521e+06 
6.199999999999e+01 4.890067198449e+06 
6.400000000000e+01 4.890072326501e+06 
 ZONE T="TIME=1.500000001000e+03"
0.000000000000e+00 4.890108411360e+06 
1.999999999998e+00 4.890108991118e+06 
3.999999999993e+00 4.890133896047e+06 
5.999999999987e+00 4.890158111884e+06 
7.999999999981e+00 4.890185133743e+06 
9.999999999976e+00 4.890193248342e+06 
1.199999999997e+01 4.890189773364e+06 
1.399999999996e+01 4.890206988973e+06 
1.599999999996e+01 4.890194859748e+06 
1.799999999995e+01 4.890169522613e+06 
1.999999999995e+01 4.890182320805e+06 
2.199999999994e+01 4.890167538796e+06 
2.399999999994e+01 4.890133477163e+06 
2.599999999993e+01 4.890122263958e+06 
2.799999999992e+01 4.890110405368e+06 
2.999999999992e+01 4.890098566849e+06 
3.199999999991e+01 4.890104809635e+06 
3.399999999992e+01 4.890143241199e+06 
3.599999999992e+01 4.890159383659e+06 
3.799999999993e+01 4.890145225524e+06 
3.999999999993e+01 4.890123865908e+06 
4.199999999994e+01 4.890095635216e+06 
4.399999999995e+01 4.890078905827e+06 
4.599999999995e+01 4.890094410564e+06 
4.799999999996e+01 4.890101169940e+06 
4.999999999996e+01 4.890111106225e+06 
5.199999999997e+01 4.890126412804e+06 
5.399999999997e+01 4.890130289259e+06 
5.599999999998e+01 4.890112251700e+06 
5.799999999998e+01 4.890067078459e+06 
5.999999999999e+01 4.890061256521e+06 
6.199999999999e+01 4.890067198449e+06 
6.400000000000e+01 4.890072326501e+06 
 ZONE T="TIME=1.800000001000e+03"
0.000000000000e+00 4.890108411360e+06 
1.999999999998e+00 4.890108991118e+06 
3.999999999993e+00 4.890133896047e+06 
5.999999999987e+00 4.890158111884e+06 
7.999999999981e+00 4.890185133743e+06 
9.999999999976e+00 4.890193248342e+06 
1.199999999997e+01 4.890189773364e+06 
1.399999999996e+01 4.890206988974e+06 
1.599999999996e+01 4.890194859748e+06 
1.799999999995e+01 4.890169522613e+06 
1.999999999995e+01 4.890182320805e+06 
2.199999999994e+01 4.890167538796e+06 
2.399999999994e+01 4.890133477163e+06 
2.599999999993e+01 4.890122263958e+06 
2.799999999992e+01 4.890110405368e+06 
2.999999999992e+01 4.890098566849e+06 
3.199999999991e+01 4.890104809635e+06 
3.399999999992e+01 4.890143241199e+06 
3.599999999992e+01 4.890159383659e+06 
3.799999999993e+01 4.890145225524e+06 
3.999999999993e+01 4.890123865908e+06 
4.199999999994e+01 4.890095635216e+06 
4.399999999995e+01 4.890078905827e+06 
4.599999999995e+01 4.890094410564e+06 
4.799999999996e+01 4.890101169940e+06 
4.999999999996e+01 4.890111106225e+06 
5.199999999997e+01 4.890126412804e+06 
5.399999999997e+01 4.890130289259e+06 
5.599999999998e+01 4.890112251700e+06 
5.799999999998e+01 4.890067078459e+06 
5.999999999999e+01 4.890061256521e+06 
6.199999999999e+01 4.890067198449e+06 
6.400000000000e+01 4.890072326501e+06 
 ZONE T="TIME=2.100000001000e+03"
0.000000000000e+00 4.890108411360e+06 
1.999999999998e+00 4.890108991118e+06 
3.999999999993e+00 4.890133896047e+06 
5.999999999987e+00 4.890158111884e+06 
7.999999999981e+00 4.890185133743e+06 
9.999999999976e+00 4.890193248342e+06 
1.199999999997e+01 4.890189773364e+06 
1.399999999996e+01 4.890206988973e+06 
1.599999999996e+01 4.890194859748e+06 
1.799999999995e+01 4.890169522613e+06 
1.999999999995e+01 4.890182320805e+06 
2.199999999994e+01 4.890167538796e+06 
2.399999999994e+01 4.890133477163e+06 
2.599999999993e+01 4.890122263958e+06 
2.799999999992e+01 4.890110405368e+06 
2.999999999992e+01 4.890098566849e+06 
3.199999999991e+01 4.890104809635e+06 
3.399999999992e+01 4.890143241199e+06 
3.599999999992e+01 4.890159383659e+06 
3.799999999993e+01 4.890145225524e+06 
3.999999999993e+01 4.890123865908e+06 
4.199999999994e+01 4.890095635216e+06 
4.399999999995e+01 4.890078905827e+06 
4.599999999995e+01 4.890094410564e+06 
4.799999999996e+01 4.890101169940e+06 
4.999999999996e+01 4.890111106225e+06 
5.199999999997e+01 4.890126412804e+06 
5.399999999997e+01 4.890130289259e+06 
5.599999999998e+01 4.890112251700e+06 
5.799999999998e+01 4.890067078459e+06 
5.999999999999e+01 4.890061256521e+06 
6.199999999999e+01 4.890067198449e+06 
6.400000000000e+01 4.890072326501e+06 
 ZONE T="TIME=2.400000001000e+03"
0.000000000000e+00 4.890107323677e+06 
1.999999999998e+00 4.890107942574e+06 
3.999999999993e+00 4.890133436134e+06 
5.999999999987e+00 4.890158532788e+06 
7.999999999981e+00 4.890186850082e+06 
9.999999999976e+00 4.890195271206e+06 
1.199999999997e+01 4.890191427570e+06 
1.399999999996e+01 4.890209284651e+06 
1.599999999996e+01 4.890196462174e+06 
1.799999999995e+01 4.890169924420e+06 
1.999999999995e+01 4.890183282562e+06 
2.199999999994e+01 4.890167905299e+06 
2.399999999994e+01 4.890132638051e+06 
2.599999999993e+01 4.890121211820e+06 
2.799999999992e+01 4.890109168872e+06 
2.999999999992e+01 4.890097143331e+06 
3.199999999991e+01 4.890103638298e+06 
3.399999999992e+01 4.890143233707e+06 
3.599999999992e+01 4.890160182483e+06 
3.799999999993e+01 4.890145625147e+06 
3.999999999993e+01 4.890123607422e+06 
4.199999999994e+01 4.890094866646e+06 
4.399999999995e+01 4.890077869187e+06 
4.599999999995e+01 4.890093523532e+06 
4.799999999996e+01 4.890100493912e+06 
4.999999999996e+01 4.890110642145e+06 
5.199999999997e+01 4.890126511767e+06 
5.399999999997e+01 4.890130625216e+06 
5.599999999998e+01 4.890112150617e+06 
5.799999999998e+01 4.890066459578e+06 
5.999999999999e+01 4.890060731595e+06 
6.199999999999e+01 4.890067112030e+06 
6.400000000000e+01 4.890072583881e+06 
 ZONE T="TIME=2.700000001000e+03"
0.000000000000e+00 4.890106317810e+06 
1.999999999998e+00 4.890106979684e+06 
3.999999999993e+00 4.890133045912e+06 
5.999999999987e+00 4.890159007076e+06 
7.999999999981e+00 4.890188605621e+06 
9.999999999976e+00 4.890197300584e+06 
1.199999999997e+01 4.890193037204e+06 
1.399999999996e+01 4.890211480964e+06 
1.599999999996e+01 4.890197963189e+06 
1.799999999995e+01 4.890170251449e+06 
1.999999999995e+01 4.890184148857e+06 
2.199999999994e+01 4.890168195622e+06 
2.399999999994e+01 4.890131769908e+06 
2.599999999993e+01 4.890120147929e+06 
2.799999999992e+01 4.890107940269e+06 
2.999999999992e+01 4.890095743368e+06 
3.199999999991e+01 4.890102471722e+06 
3.399999999992e+01 4.890143133529e+06 
3.599999999992e+01 4.890160844363e+06 
3.799999999993e+01 4.890145912455e+06 
3.999999999993e+01 4.890123271787e+06 
4.199999999994e+01 4.890094591471e+06 
4.399999999995e+01 4.890077385581e+06 
4.599999999995e+01 4.890092608980e+06 
4.799999999996e+01 4.890099759056e+06 
4.999999999996e+01 4.890110098456e+06 
5.199999999997e+01 4.890126497615e+06 
5.399999999997e+01 4.890130839464e+06 
5.599999999998e+01 4.890111968307e+06 
5.799999999998e+01 4.890065858807e+06 
5.999999999999e+01 4.890060232567e+06 
6.199999999999e+01 4.890067036753e+06 
6.400000000000e+01 4.890072842277e+06 
 ZONE T="TIME=3.000000001000e+03"
0.000000000000e+00 4.890105332361e+06 
1.999999999998e+00 4.890106061210e+06 
3.999999999993e+00 4.890132829540e+06 
5.999999999987e+00 4.890159813791e+06 
7.999999999981e+00 4.890190885021e+06 
9.999999999976e+00 4.890199806159e+06 
1.199999999997e+01 4.890194888464e+06 
1.399999999996e+01 4.890213867542e+06 
1.599999999996e+01 4.890199524453e+06 
1.799999999995e+01 4.890170497793e+06 
1.999999999995e+01 4.890184985778e+06 
2.199999999994e+01 4.890168400689e+06 
2.399999999994e+01 4.890130712211e+06 
2.599999999993e+01 4.890118892151e+06 
2.799999999992e+01 4.890106525736e+06 
2.999999999992e+01 4.890094160030e+06 
3.199999999991e+01 4.890101147725e+06 
3.399999999992e+01 4.890142945249e+06 
3.599999999992e+01 4.890161498519e+06 
3.799999999993e+01 4.890146168339e+06 
3.999999999993e+01 4.890122852756e+06 
4.199999999994e+01 4.890094291705e+06 
4.399999999995e+01 4.890076863711e+06 
4.599999999995e+01 4.890091578310e+06 
4.799999999996e+01 4.890098918655e+06 
4.999999999996e+01 4.890109450623e+06 
5.199999999997e+01 4.890126414248e+06 
5.399999999997e+01 4.890130997206e+06 
5.599999999998e+01 4.890111704036e+06 
5.799999999998e+01 4.890065193256e+06 
5.999999999999e+01 4.890059677467e+06 
6.199999999999e+01 4.890066936759e+06 
6.400000000000e+01 4.890073106565e+06 
 ZONE T="TIME=3.300000001000e+03"
0.000000000000e+00 4.890104288841e+06 
1.999999999998e+00 4.890105092634e+06 
3.999999999993e+00 4.890132580870e+06 
5.999999999987e+00 4.890160631196e+06 
7.999999999981e+00 4.890193258285e+06 
9.999999999976e+00 4.890202386946e+06 
1.199999999997e+01 4.890196722896e+06 
1.399999999996e+01 4.890216216169e+06 
1.599999999996e+01 4.890200984407e+06 
1.799999999995e+01 4.890170567788e+06 
1.999999999995e+01 4.890185640879e+06 
2.199999999994e+01 4.890168423585e+06 
2.399999999994e+01 4.890129554389e+06 
2.599999999993e+01 4.890117721556e+06 
2.799999999992e+01 4.890105239937e+06 
2.999999999992e+01 4.890092630848e+06 
3.199999999991e+01 4.890099741348e+06 
3.399999999992e+01 4.890142592030e+06 
3.599999999992e+01 4.890162000217e+06 
3.799999999993e+01 4.890146334065e+06 
3.999999999993e+01 4.890122593272e+06 
4.199999999994e+01 4.890094260213e+06 
4.399999999995e+01 4.890076536864e+06 
4.599999999995e+01 4.890090564255e+06 
4.799999999996e+01 4.890097996522e+06 
4.999999999996e+01 4.890108811346e+06 
5.199999999997e+01 4.890126499654e+06 
5.399999999997e+01 4.890131472647e+06 
5.599999999998e+01 4.890111706380e+06 
5.799999999998e+01 4.890064550695e+06 
5.999999999999e+01 4.890059025750e+06 
6.199999999999e+01 4.890066649691e+06 
6.400000000000e+01 4.890073153685e+06 
 ZONE T="TIME=3.600000001000e+03"
0.000000000000e+00 4.890103275515e+06 
1.999999999998e+00 4.890104156542e+06 
3.999999999993e+00 4.890132329426e+06 
5.999999999987e+00 4.890161410118e+06 
7.999999999981e+00 4.890195564032e+06 
9.999999999976e+00 4.890204869945e+06 
1.199999999997e+01 4.890198429911e+06 
1.399999999996e+01 4.890218385784e+06 
1.599999999996e+01 4.890202273126e+06 
1.799999999995e+01 4.890170499159e+06 
1.999999999995e+01 4.890186114258e+06 
2.199999999994e+01 4.890168302083e+06 
2.399999999994e+01 4.890128368125e+06 
2.599999999993e+01 4.890116630341e+06 
2.799999999992e+01 4.890104074193e+06 
2.999999999992e+01 4.890091219760e+06 
3.199999999991e+01 4.890098401076e+06 
3.399999999992e+01 4.890142209533e+06 
3.599999999992e+01 4.890162425651e+06 
3.799999999993e+01 4.890146415839e+06 
3.999999999993e+01 4.890122309111e+06 
4.199999999994e+01 4.890094270137e+06 
4.399999999995e+01 4.890076270289e+06 
4.599999999995e+01 4.890089582538e+06 
4.799999999996e+01 4.890097105464e+06 
4.999999999996e+01 4.890108245080e+06 
5.199999999997e+01 4.890126703754e+06 
5.399999999997e+01 4.890132123535e+06 
5.599999999998e+01 4.890111887888e+06 
5.799999999998e+01 4.890064027646e+06 
5.999999999999e+01 4.890058454118e+06 
6.199999999999e+01 4.890066401764e+06 
6.400000000000e+01 4.890073221222e+06 
 ZONE T="TIME=3.900000001000e+03"
0.000000000000e+00 4.890102117207e+06 
1.999999999998e+00 4.890103085918e+06 
3.999999999993e+00 4.890131990440e+06 
5.999999999987e+00 4.890162201746e+06 
7.999999999981e+00 4.890198070827e+06 
9.999999999976e+00 4.890207551449e+06 
1.199999999997e+01 4.890200204332e+06 
1.399999999996e+01 4.890220646366e+06 
1.599999999996e+01 4.890203541966e+06 
1.799999999995e+01 4.890170256100e+06 
1.999999999995e+01 4.890186448998e+06 
2.199999999994e+01 4.890167980264e+06 
2.399999999994e+01 4.890126883132e+06 
2.599999999993e+01 4.890115259130e+06 
2.799999999992e+01 4.890102646088e+06 
2.999999999992e+01 4.890089653482e+06 
3.199999999991e+01 4.890097134610e+06 
3.399999999992e+01 4.890142212888e+06 
3.599999999992e+01 4.890163335312e+06 
3.799999999993e+01 4.890146524980e+06 
3.999999999993e+01 4.890121922572e+06 
4.199999999994e+01 4.890094266229e+06 
4.399999999995e+01 4.890075983685e+06 
4.599999999995e+01 4.890088460407e+06 
4.799999999996e+01 4.890096117286e+06 
4.999999999996e+01 4.890107708910e+06 
5.199999999997e+01 4.890127105869e+06 
5.399999999997e+01 4.890133067655e+06 
5.599999999998e+01 4.890112277207e+06 
5.799999999998e+01 4.890063532379e+06 
5.999999999999e+01 4.890057849086e+06 
6.199999999999e+01 4.890066104385e+06 
6.400000000000e+01 4.890073252586e+06 
 ZONE T="TIME=4.200000001000e+03"
0.000000000000e+00 4.890108411360e+06 
1.999999999998e+00 4.890108991118e+06 
3.999999999993e+00 4.890133896047e+06 
5.999999999987e+00 4.890158111884e+06 
7.999999999981e+00 4.890185133743e+06 
9.999999999976e+00 4.890193248342e+06 
1.199999999997e+01 4.890189773364e+06 
1.399999999996e+01 4.890206988973e+06 
1.599999999996e+01 4.890194859748e+06 
1.799999999995e+01 4.890169522613e+06 
1.999999999995e+01 4.890182320805e+06 
2.199999999994e+01 4.890167538796e+06 
2.399999999994e+01 4.890133477163e+06 
2.599999999993e+01 4.890122263958e+06 
2.799999999992e+01 4.890110405368e+06 
2.999999999992e+01 4.890098566849e+06 
3.199999999991e+01 4.890104809635e+06 
3.399999999992e+01 4.890143241199e+06 
3.599999999992e+01 4.890159383659e+06 
3.799999999993e+01 4.890145225524e+06 
3.999999999993e+01 4.890123865908e+06 
4.199999999994e+01 4.890095635216e+06 
4.399999999995e+01 4.890078905827e+06 
4.599999999995e+01 4.890094410564e+06 
4.799999999996e+01 4.890101169940e+06 
4.999999999996e+01 4.890111106225e+06 
5.199999999997e+01 4.890126412804e+06 
5.399999999997e+01 4.890130289259e+06 
5.599999999998e+01 4.890112251700e+06 
5.799999999998e+01 4.890067078459e+06 
5.999999999999e+01 4.890061256521e+06 
6.199999999999e+01 4.890067198449e+06 
6.400000000000e+01 4.890072326501e+06 
 ZONE T="TIME=4.500000001000e+03"
0.000000000000e+00 4.890104920726e+06 
1.999999999998e+00 4.890105677734e+06 
3.999999999993e+00 4.890132730418e+06 
5.999999999987e+00 4.890160136139e+06 
7.999999999981e+00 4.890191822994e+06 
9.999999999976e+00 4.890200832825e+06 
1.199999999997e+01 4.890195632560e+06 
1.399999999996e+01 4.890214827323e+06 
1.599999999996e+01 4.890200138030e+06 
1.799999999995e+01 4.890170564816e+06 
1.999999999995e+01 4.890185294675e+06 
2.199999999994e+01 4.890168450746e+06 
2.399999999994e+01 4.890130253058e+06 
2.599999999993e+01 4.890118369462e+06 
2.799999999992e+01 4.890105945074e+06 
2.999999999992e+01 4.890093507038e+06 
3.199999999991e+01 4.890100589007e+06 
3.399999999992e+01 4.890142834424e+06 
3.599999999992e+01 4.890161736264e+06 
3.799999999993e+01 4.890146266596e+06 
3.999999999993e+01 4.890122762319e+06 
4.199999999994e+01 4.890094276428e+06 
4.399999999995e+01 4.890076730030e+06 
4.599999999995e+01 4.890091183360e+06 
4.799999999996e+01 4.890098560195e+06 
4.999999999996e+01 4.890109183169e+06 
5.199999999997e+01 4.890126405623e+06 
5.399999999997e+01 4.890131116379e+06 
5.599999999998e+01 4.890111643528e+06 
5.799999999998e+01 4.890064924158e+06 
5.999999999999e+01 4.890059426675e+06 
6.199999999999e+01 4.890066848286e+06 
6.400000000000e+01 4.890073157796e+06 
 ZONE T="TIME=4.800000001000e+03"
0.000000000000e+00 4.890101068528e+06 
1.999999999998e+00 4.890102148919e+06 
3.999999999993e+00 4.890131738838e+06 
5.999999999987e+00 4.890162916174e+06 
7.999999999981e+00 4.890200161688e+06 
9.999999999976e+00 4.890209708844e+06 
1.199999999997e+01 4.890201519406e+06 
1.399999999996e+01 4.890222310034e+06 
1.599999999996e+01 4.890204374378e+06 
1.799999999995e+01 4.890169848128e+06 
1.999999999995e+01 4.890186497087e+06 
2.199999999994e+01 4.890167514549e+06 
2.399999999994e+01 4.890125533564e+06 
2.599999999993e+01 4.890114122975e+06 
2.799999999992e+01 4.890101642916e+06 
2.999999999992e+01 4.890089246094e+06 
3.199999999991e+01 4.890096997741e+06 
3.399999999992e+01 4.890142360184e+06 
3.599999999992e+01 4.890164072803e+06 
3.799999999993e+01 4.890146474916e+06 
3.999999999993e+01 4.890121454331e+06 
4.199999999994e+01 4.890094191123e+06 
4.399999999995e+01 4.890075703391e+06 
4.599999999995e+01 4.890087432678e+06 
4.799999999996e+01 4.890095192964e+06 
4.999999999996e+01 4.890107171859e+06 
5.199999999997e+01 4.890127372992e+06 
5.399999999997e+01 4.890133839487e+06 
5.599999999998e+01 4.890112614436e+06 
5.799999999998e+01 4.890063158392e+06 
5.999999999999e+01 4.890057373792e+06 
6.199999999999e+01 4.890065851866e+06 
6.400000000000e+01 4.890073255561e+06 
 ZONE T="TIME=5.100000001000e+03"
0.000000000000e+00 4.890095258986e+06 
1.999999999998e+00 4.890096965925e+06 
3.999999999993e+00 4.890129517325e+06 
5.999999999987e+00 4.890164673878e+06 
7.999999999981e+00 4.890207237306e+06 
9.999999999976e+00 4.890216183578e+06 
1.199999999997e+01 4.890203242773e+06 
1.399999999996e+01 4.890224424652e+06 
1.599999999996e+01 4.890202740518e+06 
1.799999999995e+01 4.890163052303e+06 
1.999999999995e+01 4.890180802167e+06 
2.199999999994e+01 4.890167988724e+06 
2.399999999994e+01 4.890129975900e+06 
2.599999999993e+01 4.890113389086e+06 
2.799999999992e+01 4.890100845649e+06 
2.999999999992e+01 4.890094101110e+06 
3.199999999991e+01 4.890098576027e+06 
3.399999999992e+01 4.890140921819e+06 
3.599999999992e+01 4.890164503463e+06 
3.799999999993e+01 4.890143174884e+06 
3.999999999993e+01 4.890116731321e+06 
4.199999999994e+01 4.890092355405e+06 
4.399999999995e+01 4.890075788626e+06 
4.599999999995e+01 4.890083598345e+06 
4.799999999996e+01 4.890090042692e+06 
4.999999999996e+01 4.890105293955e+06 
5.199999999997e+01 4.890130800967e+06 
5.399999999997e+01 4.890141357617e+06 
5.599999999998e+01 4.890118631972e+06 
5.799999999998e+01 4.890064677301e+06 
5.999999999999e+01 4.890056384756e+06 
6.199999999999e+01 4.890065196644e+06 
6.400000000000e+01 4.890073804828e+06 
 ZONE T="TIME=5.400000001000e+03"
0.000000000000e+00 4.890097228377e+06 
1.999999999998e+00 4.890096631359e+06 
3.999999999993e+00 4.890126850786e+06 
5.999999999987e+00 4.890164159542e+06 
7.999999999981e+00 4.890209425793e+06 
9.999999999976e+00 4.890215995669e+06 
1.199999999997e+01 4.890196750436e+06 
1.399999999996e+01 4.890216636944e+06 
1.599999999996e+01 4.890198290446e+06 
1.799999999995e+01 4.890158583698e+06 
1.999999999995e+01 4.890169237243e+06 
2.199999999994e+01 4.890163883007e+06 
2.399999999994e+01 4.890137549691e+06 
2.599999999993e+01 4.890121989404e+06 
2.799999999992e+01 4.890108957459e+06 
2.999999999992e+01 4.890101537744e+06 
3.199999999991e+01 4.890099562498e+06 
3.399999999992e+01 4.890136900133e+06 
3.599999999992e+01 4.890161874721e+06 
3.799999999993e+01 4.890136300273e+06 
3.999999999993e+01 4.890109008304e+06 
4.199999999994e+01 4.890089405458e+06 
4.399999999995e+01 4.890077754656e+06 
4.599999999995e+01 4.890080626926e+06 
4.799999999996e+01 4.890083507269e+06 
4.999999999996e+01 4.890102941658e+06 
5.199999999997e+01 4.890135138361e+06 
5.399999999997e+01 4.890151047551e+06 
5.599999999998e+01 4.890127102093e+06 
5.799999999998e+01 4.890069956640e+06 
5.999999999999e+01 4.890060002663e+06 
6.199999999999e+01 4.890070553394e+06 
6.400000000000e+01 4.890081865173e+06 
 ZONE T="TIME=5.700000001000e+03"
0.000000000000e+00 4.890101488535e+06 
1.999999999998e+00 4.890100173175e+06 
3.999999999993e+00 4.890125583015e+06 
5.999999999987e+00 4.890159925816e+06 
7.999999999981e+00 4.890205175210e+06 
9.999999999976e+00 4.890207799057e+06 
1.199999999997e+01 4.890182009953e+06 
1.399999999996e+01 4.890199900097e+06 
1.599999999996e+01 4.890191693718e+06 
1.799999999995e+01 4.890163087800e+06 
1.999999999995e+01 4.890162377485e+06 
2.199999999994e+01 4.890157129525e+06 
2.399999999994e+01 4.890142724189e+06 
2.599999999993e+01 4.890128970622e+06 
2.799999999992e+01 4.890117049943e+06 
2.999999999992e+01 4.890109953760e+06 
3.199999999991e+01 4.890106381695e+06 
3.399999999992e+01 4.890141765370e+06 
3.599999999992e+01 4.890164247596e+06 
3.799999999993e+01 4.890131955867e+06 
3.999999999993e+01 4.890102163625e+06 
4.199999999994e+01 4.890088035793e+06 
4.399999999995e+01 4.890081516296e+06 
4.599999999995e+01 4.890078668868e+06 
4.799999999996e+01 4.890079331690e+06 
4.999999999996e+01 4.890100648444e+06 
5.199999999997e+01 4.890135540569e+06 
5.399999999997e+01 4.890157218534e+06 
5.599999999998e+01 4.890133152875e+06 
5.799999999998e+01 4.890075852096e+06 
5.999999999999e+01 4.890066606731e+06 
6.199999999999e+01 4.890076583790e+06 
6.400000000000e+01 4.890087482244e+06 
 ZONE T="TIME=6.000000001000e+03"
0.000000000000e+00 4.890106906863e+06 
1.999999999998e+00 4.890105960379e+06 
3.999999999993e+00 4.890129634683e+06 
5.999999999987e+00 4.890160597124e+06 
7.999999999981e+00 4.890201611156e+06 
9.999999999976e+00 4.890196630832e+06 
1.199999999997e+01 4.890166837208e+06 
1.399999999996e+01 4.890180679300e+06 
1.599999999996e+01 4.890180029477e+06 
1.799999999995e+01 4.890165176331e+06 
1.999999999995e+01 4.890160890788e+06 
2.199999999994e+01 4.890155433547e+06 
2.399999999994e+01 4.890146089737e+06 
2.599999999993e+01 4.890134531219e+06 
2.799999999992e+01 4.890124598428e+06 
2.999999999992e+01 4.890118002639e+06 
3.199999999991e+01 4.890113371693e+06 
3.399999999992e+01 4.890145304715e+06 
3.599999999992e+01 4.890162520067e+06 
3.799999999993e+01 4.890124022247e+06 
3.999999999993e+01 4.890098620895e+06 
4.199999999994e+01 4.890091723989e+06 
4.399999999995e+01 4.890085805360e+06 
4.599999999995e+01 4.890082138242e+06 
4.799999999996e+01 4.890081380868e+06 
4.999999999996e+01 4.890097856000e+06 
5.199999999997e+01 4.890131616011e+06 
5.399999999997e+01 4.890158624450e+06 
5.599999999998e+01 4.890135718030e+06 
5.799999999998e+01 4.890080507017e+06 
5.999999999999e+01 4.890072517028e+06 
6.199999999999e+01 4.890080837719e+06 
6.400000000000e+01 4.890089975971e+06 
 ZONE T="TIME=6.300000001000e+03"