 TITLE = "Profiles along polylines"
 VARIABLES = "DIST" "PRESSURE1" 
 ZONE T="TIME=0.000000000000e+00"
0.000000000000e+00 0.000000000000e+00 
1.999999999994e+00 0.000000000000e+00 
3.999999999989e+00 0.000000000000e+00 
5.999999999983e+00 0.000000000000e+00 
7.999999999978e+00 0.000000000000e+00 
9.999999999972e+00 0.000000000000e+00 
1.199999999997e+01 0.000000000000e+00 
1.399999999996e+01 0.000000000000e+00 
1.599999999996e+01 0.000000000000e+00 
1.799999999995e+01 0.000000000000e+00 
1.999999999994e+01 0.000000000000e+00 
2.199999999994e+01 0.000000000000e+00 
2.399999999993e+01 0.000000000000e+00 
2.599999999993e+01 0.000000000000e+00 
2.799999999992e+01 0.000000000000e+00 
2.999999999992e+01 0.000000000000e+00 
3.199999999991e+01 0.000000000000e+00 
3.399999999992e+01 0.000000000000e+00 
3.599999999992e+01 0.000000000000e+00 
3.799999999993e+01 0.000000000000e+00 
3.999999999993e+01 0.000000000000e+00 
4.199999999994e+01 0.000000000000e+00 
4.399999999994e+01 0.000000000000e+00 
4.599999999995e+01 0.000000000000e+00 
4.799999999996e+01 0.000000000000e+00 
4.999999999996e+01 0.000000000000e+00 
5.199999999997e+01 0.000000000000e+00 
5.399999999997e+01 0.000000000000e+00 
5.599999999998e+01 0.000000000000e+00 
5.799999999998e+01 0.000000000000e+00 
5.999999999999e+01 0.000000000000e+00 
6.199999999999e+01 0.000000000000e+00 
6.400000000000e+01 0.000000000000e+00 
 TITLE = "Profiles along polylines"
 VARIABLES = "DIST" "PRESSURE1" 
 ZONE T="TIME=1.000000000000e-06"
0.000000000000e+00 4.897445276335e+06 
1.999999999994e+00 4.897468307633e+06 
3.999999999989e+00 4.897512680530e+06 
5.999999999983e+00 4.897542316155e+06 
7.999999999978e+00 4.897556311400e+06 
9.999999999972e+00 4.897554686121e+06 
1.199999999997e+01 4.897519052125e+06 
1.399999999996e+01 4.897466447844e+06 
1.599999999996e+01 4.897421872506e+06 
1.799999999995e+01 4.897375904782e+06 
1.999999999994e+01 4.897340887542e+06 
2.199999999994e+01 4.897330758689e+06 
2.399999999993e+01 4.897340959992e+06 
2.599999999993e+01 4.897345900925e+06 
2.799999999992e+01 4.897338815562e+06 
2.999999999992e+01 4.897318671126e+06 
3.199999999991e+01 4.897293236253e+06 
3.399999999992e+01 4.897271293519e+06 
3.599999999992e+01 4.897233196565e+06 
3.799999999993e+01 4.897180613090e+06 
3.999999999993e+01 4.897097979843e+06 
4.199999999994e+01 4.896967168912e+06 
4.399999999994e+01 4.896921791823e+06 
4.599999999995e+01 4.896954502412e+06 
4.799999999996e+01 4.897055438541e+06 
4.999999999996e+01 4.897100654700e+06 
5.199999999997e+01 4.897161969522e+06 
5.399999999997e+01 4.897223505502e+06 
5.599999999998e+01 4.897285903749e+06 
5.799999999998e+01 4.897338139479e+06 
5.999999999999e+01 4.897374640303e+06 
6.199999999999e+01 4.897410630458e+06 
6.400000000000e+01 4.897431834508e+06 
 ZONE T="TIME=3.000000010000e+02"
0.000000000000e+00 4.897445276317e+06 
1.999999999994e+00 4.897468307615e+06 
3.999999999989e+00 4.897512680512e+06 
5.999999999983e+00 4.897542316136e+06 
7.999999999978e+00 4.897556311382e+06 
9.999999999972e+00 4.897554686103e+06 
1.199999999997e+01 4.897519052107e+06 
1.399999999996e+01 4.897466447825e+06 
1.599999999996e+01 4.897421872488e+06 
1.799999999995e+01 4.897375904764e+06 
1.999999999994e+01 4.897340887524e+06 
2.199999999994e+01 4.897330758671e+06 
2.399999999993e+01 4.897340959973e+06 
2.599999999993e+01 4.897345900906e+06 
2.799999999992e+01 4.897338815543e+06 
2.999999999992e+01 4.897318671108e+06 
3.199999999991e+01 4.897293236235e+06 
3.399999999992e+01 4.897271293500e+06 
3.599999999992e+01 4.897233196547e+06 
3.799999999993e+01 4.897180613071e+06 
3.999999999993e+01 4.897097979825e+06 
4.199999999994e+01 4.896967168894e+06 
4.399999999994e+01 4.896921791805e+06 
4.599999999995e+01 4.896954502394e+06 
4.799999999996e+01 4.897055438522e+06 
4.999999999996e+01 4.897100654681e+06 
5.199999999997e+01 4.897161969503e+06 
5.399999999997e+01 4.897223505484e+06 
5.599999999998e+01 4.897285903731e+06 
5.799999999998e+01 4.897338139460e+06 
5.999999999999e+01 4.897374640285e+06 
6.199999999999e+01 4.897410630439e+06 
6.400000000000e+01 4.897431834490e+06 
 ZONE T="TIME=6.000000010000e+02"
0.000000000000e+00 4.897445276317e+06 
1.999999999994e+00 4.897468307614e+06 
3.999999999989e+00 4.897512680512e+06 
5.999999999983e+00 4.897542316136e+06 
7.999999999978e+00 4.897556311381e+06 
9.999999999972e+00 4.897554686103e+06 
1.199999999997e+01 4.897519052106e+06 
1.399999999996e+01 4.897466447825e+06 
1.599999999996e+01 4.897421872488e+06 
1.799999999995e+01 4.897375904763e+06 
1.999999999994e+01 4.897340887524e+06 
2.199999999994e+01 4.897330758671e+06 
2.399999999993e+01 4.897340959973e+06 
2.599999999993e+01 4.897345900906e+06 
2.799999999992e+01 4.897338815543e+06 
2.999999999992e+01 4.897318671108e+06 
3.199999999991e+01 4.897293236235e+06 
3.399999999992e+01 4.897271293500e+06 
3.599999999992e+01 4.897233196547e+06 
3.799999999993e+01 4.897180613071e+06 
3.999999999993e+01 4.897097979825e+06 
4.199999999994e+01 4.896967168894e+06 
4.399999999994e+01 4.896921791804e+06 
4.599999999995e+01 4.896954502393e+06 
4.799999999996e+01 4.897055438522e+06 
4.999999999996e+01 4.897100654681e+06 
5.199999999997e+01 4.897161969503e+06 
5.399999999997e+01 4.897223505484e+06 
5.599999999998e+01 4.897285903730e+06 
5.799999999998e+01 4.897338139460e+06 
5.999999999999e+01 4.897374640285e+06 
6.199999999999e+01 4.897410630439e+06 
6.400000000000e+01 4.897431834490e+06 
 ZONE T="TIME=9.000000010000e+02"
0.000000000000e+00 4.897445276317e+06 
1.999999999994e+00 4.897468307614e+06 
3.999999999989e+00 4.897512680512e+06 
5.999999999983e+00 4.897542316136e+06 
7.999999999978e+00 4.897556311382e+06 
9.999999999972e+00 4.897554686103e+06 
1.199999999997e+01 4.897519052106e+06 
1.399999999996e+01 4.897466447825e+06 
1.599999999996e+01 4.897421872488e+06 
1.799999999995e+01 4.897375904763e+06 
1.999999999994e+01 4.897340887524e+06 
2.199999999994e+01 4.897330758671e+06 
2.399999999993e+01 4.897340959973e+06 
2.599999999993e+01 4.897345900906e+06 
2.799999999992e+01 4.897338815543e+06 
2.999999999992e+01 4.897318671108e+06 
3.199999999991e+01 4.897293236235e+06 
3.399999999992e+01 4.897271293500e+06 
3.599999999992e+01 4.897233196547e+06 
3.799999999993e+01 4.897180613071e+06 
3.999999999993e+01 4.897097979825e+06 
4.199999999994e+01 4.896967168894e+06 
4.399999999994e+01 4.896921791805e+06 
4.599999999995e+01 4.896954502393e+06 
4.799999999996e+01 4.897055438522e+06 
4.999999999996e+01 4.897100654681e+06 
5.199999999997e+01 4.897161969503e+06 
5.399999999997e+01 4.897223505484e+06 
5.599999999998e+01 4.897285903730e+06 
5.799999999998e+01 4.897338139460e+06 
5.999999999999e+01 4.897374640285e+06 
6.199999999999e+01 4.897410630439e+06 
6.400000000000e+01 4.897431834490e+06 
 ZONE T="TIME=1.200000001000e+03"
0.000000000000e+00 4.897445276317e+06 
1.999999999994e+00 4.897468307615e+06 
3.999999999989e+00 4.897512680512e+06 
5.999999999983e+00 4.897542316136e+06 
7.999999999978e+00 4.897556311382e+06 
9.999999999972e+00 4.897554686103e+06 
1.199999999997e+01 4.897519052107e+06 
1.399999999996e+01 4.897466447825e+06 
1.599999999996e+01 4.897421872488e+06 
1.799999999995e+01 4.897375904764e+06 
1.999999999994e+01 4.897340887524e+06 
2.199999999994e+01 4.897330758671e+06 
2.399999999993e+01 4.897340959973e+06 
2.599999999993e+01 4.897345900906e+06 
2.799999999992e+01 4.897338815543e+06 
2.999999999992e+01 4.897318671108e+06 
3.199999999991e+01 4.897293236235e+06 
3.399999999992e+01 4.897271293500e+06 
3.599999999992e+01 4.897233196547e+06 
3.799999999993e+01 4.897180613071e+06 
3.999999999993e+01 4.897097979825e+06 
4.199999999994e+01 4.896967168894e+06 
4.399999999994e+01 4.896921791805e+06 
4.599999999995e+01 4.896954502393e+06 
4.799999999996e+01 4.897055438522e+06 
4.999999999996e+01 4.897100654681e+06 
5.199999999997e+01 4.897161969503e+06 
5.399999999997e+01 4.897223505484e+06 
5.599999999998e+01 4.897285903731e+06 
5.799999999998e+01 4.897338139460e+06 
5.999999999999e+01 4.897374640285e+06 
6.199999999999e+01 4.897410630439e+06 
6.400000000000e+01 4.897431834490e+06 
 ZONE T="TIME=1.500000001000e+03"
0.000000000000e+00 4.897445276317e+06 
1.999999999994e+00 4.897468307614e+06 
3.999999999989e+00 4.897512680512e+06 
5.999999999983e+00 4.897542316136e+06 
7.999999999978e+00 4.897556311382e+06 
9.999999999972e+00 4.897554686103e+06 
1.199999999997e+01 4.897519052106e+06 
1.399999999996e+01 4.897466447825e+06 
1.599999999996e+01 4.897421872488e+06 
1.799999999995e+01 4.897375904764e+06 
1.999999999994e+01 4.897340887524e+06 
2.199999999994e+01 4.897330758671e+06 
2.399999999993e+01 4.897340959973e+06 
2.599999999993e+01 4.897345900906e+06 
2.799999999992e+01 4.897338815543e+06 
2.999999999992e+01 4.897318671108e+06 
3.199999999991e+01 4.897293236235e+06 
3.399999999992e+01 4.897271293500e+06 
3.599999999992e+01 4.897233196547e+06 
3.799999999993e+01 4.897180613071e+06 
3.999999999993e+01 4.897097979825e+06 
4.199999999994e+01 4.896967168894e+06 
4.399999999994e+01 4.896921791805e+06 
4.599999999995e+01 4.896954502393e+06 
4.799999999996e+01 4.897055438522e+06 
4.999999999996e+01 4.897100654681e+06 
5.199999999997e+01 4.897161969503e+06 
5.399999999997e+01 4.897223505484e+06 
5.599999999998e+01 4.897285903730e+06 
5.799999999998e+01 4.897338139460e+06 
5.999999999999e+01 4.897374640285e+06 
6.199999999999e+01 4.897410630439e+06 
6.400000000000e+01 4.897431834490e+06 
 ZONE T="TIME=1.800000001000e+03"
0.000000000000e+00 4.897445276317e+06 
1.999999999994e+00 4.897468307615e+06 
3.999999999989e+00 4.897512680512e+06 
5.999999999983e+00 4.897542316136e+06 
7.999999999978e+00 4.897556311382e+06 
9.999999999972e+00 4.897554686103e+06 
1.199999999997e+01 4.897519052107e+06 
1.399999999996e+01 4.897466447825e+06 
1.599999999996e+01 4.897421872488e+06 
1.799999999995e+01 4.897375904764e+06 
1.999999999994e+01 4.897340887524e+06 
2.199999999994e+01 4.897330758671e+06 
2.399999999993e+01 4.897340959973e+06 
2.599999999993e+01 4.897345900906e+06 
2.799999999992e+01 4.897338815543e+06 
2.999999999992e+01 4.897318671108e+06 
3.199999999991e+01 4.897293236235e+06 
3.399999999992e+01 4.897271293500e+06 
3.599999999992e+01 4.897233196547e+06 
3.799999999993e+01 4.897180613071e+06 
3.999999999993e+01 4.897097979825e+06 
4.199999999994e+01 4.896967168894e+06 
4.399999999994e+01 4.896921791805e+06 
4.599999999995e+01 4.896954502394e+06 
4.799999999996e+01 4.897055438522e+06 
4.999999999996e+01 4.897100654681e+06 
5.199999999997e+01 4.897161969503e+06 
5.399999999997e+01 4.897223505484e+06 
5.599999999998e+01 4.897285903731e+06 
5.799999999998e+01 4.897338139460e+06 
5.999999999999e+01 4.897374640285e+06 
6.199999999999e+01 4.897410630439e+06 
6.400000000000e+01 4.897431834490e+06 
 ZONE T="TIME=2.100000001000e+03"
0.000000000000e+00 4.897445276317e+06 
1.999999999994e+00 4.897468307614e+06 
3.999999999989e+00 4.897512680512e+06 
5.999999999983e+00 4.897542316136e+06 
7.999999999978e+00 4.897556311382e+06 
9.999999999972e+00 4.897554686103e+06 
1.199999999997e+01 4.897519052106e+06 
1.399999999996e+01 4.897466447825e+06 
1.599999999996e+01 4.897421872488e+06 
1.799999999995e+01 4.897375904763e+06 
1.999999999994e+01 4.897340887524e+06 
2.199999999994e+01 4.897330758671e+06 
2.399999999993e+01 4.897340959973e+06 
2.599999999993e+01 4.897345900906e+06 
2.799999999992e+01 4.897338815543e+06 
2.999999999992e+01 4.897318671108e+06 
3.199999999991e+01 4.897293236235e+06 
3.399999999992e+01 4.897271293500e+06 
3.599999999992e+01 4.897233196547e+06 
3.799999999993e+01 4.897180613071e+06 
3.999999999993e+01 4.897097979825e+06 
4.199999999994e+01 4.896967168894e+06 
4.399999999994e+01 4.896921791804e+06 
4.599999999995e+01 4.896954502393e+06 
4.799999999996e+01 4.897055438522e+06 
4.999999999996e+01 4.897100654681e+06 
5.199999999997e+01 4.897161969503e+06 
5.399999999997e+01 4.897223505484e+06 
5.599999999998e+01 4.897285903730e+06 
5.799999999998e+01 4.897338139460e+06 
5.999999999999e+01 4.897374640285e+06 
6.199999999999e+01 4.897410630439e+06 
6.400000000000e+01 4.897431834490e+06 
 ZONE T="TIME=2.400000001000e+03"
0.000000000000e+00 4.897811018290e+06 
1.999999999994e+00 4.897834357203e+06 
3.999999999989e+00 4.897879243974e+06 
5.999999999983e+00 4.897909132979e+06 
7.999999999978e+00 4.897923155965e+06 
9.999999999972e+00 4.897921344305e+06 
1.199999999997e+01 4.897885262736e+06 
1.399999999996e+01 4.897831910199e+06 
1.599999999996e+01 4.897786528898e+06 
1.799999999995e+01 4.897739715762e+06 
1.999999999994e+01 4.897704008621e+06 
2.199999999994e+01 4.897693598345e+06 
2.399999999993e+01 4.897703811332e+06 
2.599999999993e+01 4.897708656665e+06 
2.799999999992e+01 4.897701313366e+06 
2.999999999992e+01 4.897680767993e+06 
3.199999999991e+01 4.897654839519e+06 
3.399999999992e+01 4.897632412823e+06 
3.599999999992e+01 4.897593669423e+06 
3.799999999993e+01 4.897540288694e+06 
3.999999999993e+01 4.897456629202e+06 
4.199999999994e+01 4.897323831258e+06 
4.399999999994e+01 4.897277499631e+06 
4.599999999995e+01 4.897310781179e+06 
4.799999999996e+01 4.897413286914e+06 
4.999999999996e+01 4.897459216015e+06 
5.199999999997e+01 4.897521461141e+06 
5.399999999997e+01 4.897583888464e+06 
5.599999999998e+01 4.897647126054e+06 
5.799999999998e+01 4.897700030681e+06 
5.999999999999e+01 4.897737004099e+06 
6.199999999999e+01 4.897773349366e+06 
6.400000000000e+01 4.897794687849e+06 
 ZONE T="TIME=2.700000001000e+03"
0.000000000000e+00 4.898172463649e+06 
1.999999999994e+00 4.898196091683e+06 
3.999999999989e+00 4.898241458629e+06 
5.999999999983e+00 4.898271580605e+06 
7.999999999978e+00 4.898285623772e+06 
9.999999999972e+00 4.898283631031e+06 
1.199999999997e+01 4.898247126763e+06 
1.399999999996e+01 4.898193069168e+06 
1.599999999996e+01 4.898146924561e+06 
1.799999999995e+01 4.898099309229e+06 
1.999999999994e+01 4.898062945864e+06 
2.199999999994e+01 4.898052264961e+06 
2.399999999993e+01 4.898062482421e+06 
2.599999999993e+01 4.898067229551e+06 
2.799999999992e+01 4.898059634970e+06 
2.999999999992e+01 4.898038703853e+06 
3.199999999991e+01 4.898012302758e+06 
3.399999999992e+01 4.897989411753e+06 
3.599999999992e+01 4.897950052302e+06 
3.799999999993e+01 4.897895914796e+06 
3.999999999993e+01 4.897811286864e+06 
4.199999999994e+01 4.897676618675e+06 
4.399999999994e+01 4.897629381537e+06 
4.599999999995e+01 4.897663199689e+06 
4.799999999996e+01 4.897767174053e+06 
4.999999999996e+01 4.897813769641e+06 
5.199999999997e+01 4.897876884121e+06 
5.399999999997e+01 4.897940143959e+06 
5.599999999998e+01 4.898004164516e+06 
5.799999999998e+01 4.898057691943e+06 
5.999999999999e+01 4.898095106205e+06 
6.199999999999e+01 4.898131782042e+06 
6.400000000000e+01 4.898153244834e+06 
 ZONE T="TIME=3.000000001000e+03"
0.000000000000e+00 4.898581087663e+06 
1.999999999994e+00 4.898605025903e+06 
3.999999999989e+00 4.898650904050e+06 
5.999999999983e+00 4.898681267898e+06 
7.999999999978e+00 4.898695322683e+06 
9.999999999972e+00 4.898693124359e+06 
1.199999999997e+01 4.898656158534e+06 
1.399999999996e+01 4.898601335536e+06 
1.599999999996e+01 4.898554357476e+06 
1.799999999995e+01 4.898505863794e+06 
1.999999999994e+01 4.898468779052e+06 
2.199999999994e+01 4.898457792564e+06 
2.399999999993e+01 4.898467997135e+06 
2.599999999993e+01 4.898472616071e+06 
2.799999999992e+01 4.898464727440e+06 
2.999999999992e+01 4.898443355430e+06 
3.199999999991e+01 4.898416421073e+06 
3.399999999992e+01 4.898393003026e+06 
3.599999999992e+01 4.898352952529e+06 
3.799999999993e+01 4.898297973705e+06 
3.999999999993e+01 4.898212278375e+06 
4.199999999994e+01 4.898075572290e+06 
4.399999999994e+01 4.898027342339e+06 
4.599999999995e+01 4.898061735168e+06 
4.799999999996e+01 4.898167279351e+06 
4.999999999996e+01 4.898214584794e+06 
5.199999999997e+01 4.898278626411e+06 
5.399999999997e+01 4.898342773938e+06 
5.599999999998e+01 4.898407628584e+06 
5.799999999998e+01 4.898461817847e+06 
5.999999999999e+01 4.898499701601e+06 
6.199999999999e+01 4.898536729417e+06 
6.400000000000e+01 4.898558323873e+06 
 ZONE T="TIME=3.300000001000e+03"
0.000000000000e+00 4.899015044036e+06 
1.999999999994e+00 4.899039295861e+06 
3.999999999989e+00 4.899085686877e+06 
5.999999999983e+00 4.899116287520e+06 
7.999999999978e+00 4.899130344565e+06 
9.999999999972e+00 4.899127927920e+06 
1.199999999997e+01 4.899090488814e+06 
1.399999999996e+01 4.899034884681e+06 
1.599999999996e+01 4.898987050683e+06 
1.799999999995e+01 4.898937652224e+06 
1.999999999994e+01 4.898899820914e+06 
2.199999999994e+01 4.898888508724e+06 
2.399999999993e+01 4.898898679051e+06 
2.599999999993e+01 4.898903140824e+06 
2.799999999992e+01 4.898894925393e+06 
2.999999999992e+01 4.898873074772e+06 
3.199999999991e+01 4.898845569357e+06 
3.399999999992e+01 4.898821582819e+06 
3.599999999992e+01 4.898780796401e+06 
3.799999999993e+01 4.898724930708e+06 
3.999999999993e+01 4.898638120342e+06 
4.199999999994e+01 4.898499313988e+06 
4.399999999994e+01 4.898450057042e+06 
4.599999999995e+01 4.898485036499e+06 
4.799999999996e+01 4.898592183322e+06 
4.999999999996e+01 4.898640216002e+06 
5.199999999997e+01 4.898705206315e+06 
5.399999999997e+01 4.898770261413e+06 
5.599999999998e+01 4.898835967392e+06 
5.799999999998e+01 4.898890832590e+06 
5.999999999999e+01 4.898929196330e+06 
6.199999999999e+01 4.898966580651e+06 
6.400000000000e+01 4.898988306746e+06 
 ZONE T="TIME=3.600000001000e+03"
0.000000000000e+00 4.899442030834e+06 
1.999999999994e+00 4.899466565886e+06 
3.999999999989e+00 4.899513407331e+06 
5.999999999983e+00 4.899544185688e+06 
7.999999999978e+00 4.899558178133e+06 
9.999999999972e+00 4.899555286799e+06 
1.199999999997e+01 4.899517506839e+06 
1.399999999996e+01 4.899461489441e+06 
1.599999999996e+01 4.899412952567e+06 
1.799999999995e+01 4.899362761663e+06 
1.999999999994e+01 4.899324260940e+06 
2.199999999994e+01 4.899312664454e+06 
2.399999999993e+01 4.899322821116e+06 
2.599999999993e+01 4.899327154459e+06 
2.799999999992e+01 4.899318649419e+06 
2.999999999992e+01 4.899296367904e+06 
3.199999999991e+01 4.899268341252e+06 
3.399999999992e+01 4.899243835391e+06 
3.599999999992e+01 4.899202374700e+06 
3.799999999993e+01 4.899145692742e+06 
3.999999999993e+01 4.899057857192e+06 
4.199999999994e+01 4.898917101563e+06 
4.399999999994e+01 4.898866882063e+06 
4.599999999995e+01 4.898902417828e+06 
4.799999999996e+01 4.899011072764e+06 
4.999999999996e+01 4.899059792302e+06 
5.199999999997e+01 4.899125675910e+06 
5.399999999997e+01 4.899191584693e+06 
5.599999999998e+01 4.899258090009e+06 
5.799999999998e+01 4.899313589479e+06 
5.999999999999e+01 4.899352404205e+06 
6.199999999999e+01 4.899390121414e+06 
6.400000000000e+01 4.899411969161e+06 
 ZONE T="TIME=3.900000001000e+03"
0.000000000000e+00 4.899923065402e+06 
1.999999999994e+00 4.899947902815e+06 
3.999999999989e+00 4.899995218475e+06 
5.999999999983e+00 4.900026170441e+06 
7.999999999978e+00 4.900040068263e+06 
9.999999999972e+00 4.900036588540e+06 
1.199999999997e+01 4.899998463340e+06 
1.399999999996e+01 4.899942082217e+06 
1.599999999996e+01 4.899892810109e+06 
1.799999999995e+01 4.899841774659e+06 
1.999999999994e+01 4.899802557163e+06 
2.199999999994e+01 4.899790664534e+06 
2.399999999993e+01 4.899800825028e+06 
2.599999999993e+01 4.899805043311e+06 
2.799999999992e+01 4.899796249766e+06 
2.999999999992e+01 4.899773532006e+06 
3.199999999991e+01 4.899744969207e+06 
3.399999999992e+01 4.899719933240e+06 
3.599999999992e+01 4.899677779678e+06 
3.799999999993e+01 4.899620251397e+06 
3.999999999993e+01 4.899531351546e+06 
4.199999999994e+01 4.899388533954e+06 
4.399999999994e+01 4.899337284268e+06 
4.599999999995e+01 4.899373431034e+06 
4.799999999996e+01 4.899483725281e+06 
4.999999999996e+01 4.899533196038e+06 
5.199999999997e+01 4.899600052049e+06 
5.399999999997e+01 4.899666888803e+06 
5.599999999998e+01 4.899734261128e+06 
5.799999999998e+01 4.899790448509e+06 
5.999999999999e+01 4.899829752861e+06 
6.199999999999e+01 4.899867828551e+06 
6.400000000000e+01 4.899889805726e+06 
 ZONE T="TIME=4.200000001000e+03"
0.000000000000e+00 4.897445276306e+06 
1.999999999994e+00 4.897468307604e+06 
3.999999999989e+00 4.897512680502e+06 
5.999999999983e+00 4.897542316126e+06 
7.999999999978e+00 4.897556311371e+06 
9.999999999972e+00 4.897554686093e+06 
1.199999999997e+01 4.897519052096e+06 
1.399999999996e+01 4.897466447815e+06 
1.599999999996e+01 4.897421872477e+06 
1.799999999995e+01 4.897375904753e+06 
1.999999999994e+01 4.897340887513e+06 
2.199999999994e+01 4.897330758660e+06 
2.399999999993e+01 4.897340959963e+06 
2.599999999993e+01 4.897345900896e+06 
2.799999999992e+01 4.897338815533e+06 
2.999999999992e+01 4.897318671097e+06 
3.199999999991e+01 4.897293236224e+06 
3.399999999992e+01 4.897271293490e+06 
3.599999999992e+01 4.897233196536e+06 
3.799999999993e+01 4.897180613061e+06 
3.999999999993e+01 4.897097979814e+06 
4.199999999994e+01 4.896967168883e+06 
4.399999999994e+01 4.896921791794e+06 
4.599999999995e+01 4.896954502383e+06 
4.799999999996e+01 4.897055438511e+06 
4.999999999996e+01 4.897100654670e+06 
5.199999999997e+01 4.897161969493e+06 
5.399999999997e+01 4.897223505473e+06 
5.599999999998e+01 4.897285903720e+06 
5.799999999998e+01 4.897338139450e+06 
5.999999999999e+01 4.897374640275e+06 
6.199999999999e+01 4.897410630429e+06 
6.400000000000e+01 4.897431834479e+06 
 ZONE T="TIME=4.500000001000e+03"
0.000000000000e+00 4.898752558197e+06 
1.999999999994e+00 4.898776621598e+06 
3.999999999989e+00 4.898822704533e+06 
5.999999999983e+00 4.898853162824e+06 
7.999999999978e+00 4.898867218206e+06 
9.999999999972e+00 4.898864932081e+06 
1.199999999997e+01 4.898827775880e+06 
1.399999999996e+01 4.898772639273e+06 
1.599999999996e+01 4.898725318054e+06 
1.799999999995e+01 4.898676461734e+06 
1.999999999994e+01 4.898639077873e+06 
2.199999999994e+01 4.898627960506e+06 
2.399999999993e+01 4.898638150595e+06 
2.599999999993e+01 4.898642705787e+06 
2.799999999992e+01 4.898634685614e+06 
2.999999999992e+01 4.898613121099e+06 
3.199999999991e+01 4.898585957450e+06 
3.399999999992e+01 4.898562311100e+06 
3.599999999992e+01 4.898521965007e+06 
3.799999999993e+01 4.898466630126e+06 
3.999999999993e+01 4.898380486777e+06 
4.199999999994e+01 4.898242938320e+06 
4.399999999994e+01 4.898194297613e+06 
4.599999999995e+01 4.898228924621e+06 
4.799999999996e+01 4.898335109874e+06 
4.999999999996e+01 4.898382705963e+06 
5.199999999997e+01 4.898447127021e+06 
5.399999999997e+01 4.898511637651e+06 
5.599999999998e+01 4.898576833082e+06 
5.799999999998e+01 4.898631292979e+06 
5.999999999999e+01 4.898669368831e+06 
6.199999999999e+01 4.898706539584e+06 
6.400000000000e+01 4.898728186983e+06 
 ZONE T="TIME=4.800000001000e+03"
0.000000000000e+00 4.900327108650e+06 
1.999999999994e+00 4.900352188872e+06 
3.999999999989e+00 4.900399881838e+06 
5.999999999983e+00 4.900430965898e+06 
7.999999999978e+00 4.900444778149e+06 
9.999999999972e+00 4.900440814277e+06 
1.199999999997e+01 4.900402405684e+06 
1.399999999996e+01 4.900345730164e+06 
1.599999999996e+01 4.900295858384e+06 
1.799999999995e+01 4.900244131552e+06 
1.999999999994e+01 4.900204324936e+06 
2.199999999994e+01 4.900192183351e+06 
2.399999999993e+01 4.900202334845e+06 
2.599999999993e+01 4.900206444899e+06 
2.799999999992e+01 4.900197402268e+06 
2.999999999992e+01 4.900174314836e+06 
3.199999999991e+01 4.900145302306e+06 
3.399999999992e+01 4.900119819678e+06 
3.599999999992e+01 4.900077087741e+06 
3.799999999993e+01 4.900018857930e+06 
3.999999999993e+01 4.899929081932e+06 
4.199999999994e+01 4.899784582045e+06 
4.399999999994e+01 4.899732486803e+06 
4.599999999995e+01 4.899769125591e+06 
4.799999999996e+01 4.899880736752e+06 
4.999999999996e+01 4.899930809280e+06 
5.199999999997e+01 4.899998444821e+06 
5.399999999997e+01 4.900066025232e+06 
5.599999999998e+01 4.900134091630e+06 
5.799999999998e+01 4.900190828507e+06 
5.999999999999e+01 4.900230524736e+06 
6.199999999999e+01 4.900268887030e+06 
6.400000000000e+01 4.900290967066e+06 
 ZONE T="TIME=5.100000001000e+03"
0.000000000000e+00 4.902152085417e+06 
1.999999999994e+00 4.902178151632e+06 
3.999999999989e+00 4.902227316499e+06 
5.999999999983e+00 4.902258791565e+06 
7.999999999978e+00 4.902271822866e+06 
9.999999999972e+00 4.902265723784e+06 
1.199999999997e+01 4.902226423798e+06 
1.399999999996e+01 4.902168628801e+06 
1.599999999996e+01 4.902116252915e+06 
1.799999999995e+01 4.902061571842e+06 
1.999999999994e+01 4.902019203003e+06 
2.199999999994e+01 4.902005903340e+06 
2.399999999993e+01 4.902015848880e+06 
2.599999999993e+01 4.902019277035e+06 
2.799999999992e+01 4.902008939042e+06 
2.999999999992e+01 4.901984016268e+06 
3.199999999991e+01 4.901952837966e+06 
3.399999999992e+01 4.901925172593e+06 
3.599999999992e+01 4.901879691669e+06 
3.799999999993e+01 4.901818204255e+06 
3.999999999993e+01 4.901724436112e+06 
4.199999999994e+01 4.901572512330e+06 
4.399999999994e+01 4.901516643595e+06 
4.599999999995e+01 4.901555336001e+06 
4.799999999996e+01 4.901672442732e+06 
4.999999999996e+01 4.901724992246e+06 
5.199999999997e+01 4.901795823752e+06 
5.399999999997e+01 4.901866424169e+06 
5.599999999998e+01 4.901937307378e+06 
5.799999999998e+01 4.901996285215e+06 
5.999999999999e+01 4.902037620495e+06 
6.199999999999e+01 4.902077195577e+06 
6.400000000000e+01 4.902099706973e+06 
 ZONE T="TIME=5.400000001000e+03"
0.000000000000e+00 4.904206623878e+06 
1.999999999994e+00 4.904233664360e+06 
3.999999999989e+00 4.904284202423e+06 
5.999999999983e+00 4.904315860807e+06 
7.999999999978e+00 4.904327119540e+06 
9.999999999972e+00 4.904318923760e+06 
1.199999999997e+01 4.904279952057e+06 
1.399999999996e+01 4.904221642014e+06 
1.599999999996e+01 4.904167192486e+06 
1.799999999995e+01 4.904109906321e+06 
1.999999999994e+01 4.904065232905e+06 
2.199999999994e+01 4.904051033152e+06 
2.399999999993e+01 4.904061066998e+06 
2.599999999993e+01 4.904064099349e+06 
2.799999999992e+01 4.904052697825e+06 
2.999999999992e+01 4.904026171794e+06 
3.199999999991e+01 4.903992983731e+06 
3.399999999992e+01 4.903963263560e+06 
3.599999999992e+01 4.903915159980e+06 
3.799999999993e+01 4.903850509880e+06 
3.999999999993e+01 4.903752877608e+06 
4.199999999994e+01 4.903593556962e+06 
4.399999999994e+01 4.903533782129e+06 
4.599999999995e+01 4.903574631022e+06 
4.799999999996e+01 4.903697347904e+06 
4.999999999996e+01 4.903752419708e+06 
5.199999999997e+01 4.903826454722e+06 
5.399999999997e+01 4.903900043719e+06 
5.599999999998e+01 4.903973704084e+06 
5.799999999998e+01 4.904034901409e+06 
5.999999999999e+01 4.904077904919e+06 
6.199999999999e+01 4.904118717190e+06 
6.400000000000e+01 4.904141657471e+06 
 ZONE T="TIME=5.700000001000e+03"
0.000000000000e+00 4.906454418136e+06 
1.999999999994e+00 4.906482530891e+06 
3.999999999989e+00 4.906534607134e+06 
5.999999999983e+00 4.906566569831e+06 
7.999999999978e+00 4.906576121942e+06 
9.999999999972e+00 4.906565949036e+06 
1.199999999997e+01 4.906527563227e+06 
1.399999999996e+01 4.906469053661e+06 
1.599999999996e+01 4.906412843445e+06 
1.799999999995e+01 4.906353313850e+06 
1.999999999994e+01 4.906306663427e+06 
2.199999999994e+01 4.906291928414e+06 
2.399999999993e+01 4.906302492725e+06 
2.599999999993e+01 4.906305574694e+06 
2.799999999992e+01 4.906293496853e+06 
2.999999999992e+01 4.906265770082e+06 
3.199999999991e+01 4.906230898146e+06 
3.399999999992e+01 4.906199454532e+06 
3.599999999992e+01 4.906149078556e+06 
3.799999999993e+01 4.906081586608e+06 
3.999999999993e+01 4.905980465584e+06 
4.199999999994e+01 4.905814024976e+06 
4.399999999994e+01 4.905750313297e+06 
4.599999999995e+01 4.905793505136e+06 
4.799999999996e+01 4.905922090948e+06 
4.999999999996e+01 4.905979843037e+06 
5.199999999997e+01 4.906057224930e+06 
5.399999999997e+01 4.906133916324e+06 
5.599999999998e+01 4.906210439881e+06 
5.799999999998e+01 4.906273924498e+06 
5.999999999999e+01 4.906318658001e+06 
6.199999999999e+01 4.906360723752e+06 
6.400000000000e+01 4.906384079833e+06 
 ZONE T="TIME=6.000000001000e+03"
0.000000000000e+00 4.908847150465e+06 
1.999999999994e+00 4.908876281904e+06 
3.999999999989e+00 4.908929706638e+06 
5.999999999983e+00 4.908961703652e+06 
7.999999999978e+00 4.908969231707e+06 
9.999999999972e+00 4.908956780520e+06 
1.199999999997e+01 4.908918788272e+06 
1.399999999996e+01 4.908859923463e+06 
1.599999999996e+01 4.908801681037e+06 
1.799999999995e+01 4.908739548532e+06 
1.999999999994e+01 4.908690569748e+06 
2.199999999994e+01 4.908674998291e+06 
2.399999999993e+01 4.908685747787e+06 
2.599999999993e+01 4.908688433965e+06 
2.799999999992e+01 4.908675195456e+06 
2.999999999992e+01 4.908645727940e+06 
3.199999999991e+01 4.908608657675e+06 
3.399999999992e+01 4.908574959636e+06 
3.599999999992e+01 4.908521767246e+06 
3.799999999993e+01 4.908450900694e+06 
3.999999999993e+01 4.908345755067e+06 
4.199999999994e+01 4.908171508372e+06 
4.399999999994e+01 4.908103400940e+06 
4.599999999995e+01 4.908148969853e+06 
4.799999999996e+01 4.908283480556e+06 
4.999999999996e+01 4.908343887280e+06 
5.199999999997e+01 4.908424572172e+06 
5.399999999997e+01 4.908504279922e+06 
5.599999999998e+01 4.908583547793e+06 
5.799999999998e+01 4.908649178093e+06 
5.999999999999e+01 4.908695559612e+06 
6.199999999999e+01 4.908738838936e+06 
6.400000000000e+01 4.908762594566e+06 
 ZONE T="TIME=6.300000001000e+03"