VARIABLES = "X","Y","Z",VELOCITY_X1,VELOCITY_Y1
ZONE T="0.000000000000e+00s", 
3.907670000000e+01 3.122180000000e+01 0.000000000000e+00 0.000000000000e+00 0.000000000000e+00 0.000000000000e+00
3.907670000000e+01 2.922179999999e+01 0.000000000000e+00 0.000000000000e+00 0.000000000000e+00 0.000000000000e+00
3.907670000000e+01 2.722179999999e+01 0.000000000000e+00 0.000000000000e+00 0.000000000000e+00 0.000000000000e+00
3.907670000000e+01 2.522179999998e+01 0.000000000000e+00 0.000000000000e+00 0.000000000000e+00 0.000000000000e+00
3.907670000000e+01 2.322179999998e+01 0.000000000000e+00 0.000000000000e+00 0.000000000000e+00 0.000000000000e+00
3.907670000000e+01 2.122179999997e+01 0.000000000000e+00 0.000000000000e+00 0.000000000000e+00 0.000000000000e+00
3.907670000000e+01 1.922179999997e+01 0.000000000000e+00 0.000000000000e+00 0.000000000000e+00 0.000000000000e+00
3.907670000000e+01 1.722179999996e+01 0.000000000000e+00 0.000000000000e+00 0.000000000000e+00 0.000000000000e+00
3.907670000000e+01 1.522179999996e+01 0.000000000000e+00 0.000000000000e+00 0.000000000000e+00 0.000000000000e+00
3.907670000000e+01 1.322179999995e+01 0.000000000000e+00 0.000000000000e+00 0.000000000000e+00 0.000000000000e+00
3.907670000000e+01 1.122179999995e+01 0.000000000000e+00 0.000000000000e+00 0.000000000000e+00 0.000000000000e+00
3.907670000000e+01 9.221799999942e+00 0.000000000000e+00 0.000000000000e+00 0.000000000000e+00 0.000000000000e+00
3.907670000000e+01 7.221799999937e+00 0.000000000000e+00 0.000000000000e+00 0.000000000000e+00 0.000000000000e+00
3.907670000000e+01 5.221799999932e+00 0.000000000000e+00 0.000000000000e+00 0.000000000000e+00 0.000000000000e+00
3.907670000000e+01 3.221799999926e+00 0.000000000000e+00 0.000000000000e+00 0.000000000000e+00 0.000000000000e+00
3.907670000000e+01 1.221799999921e+00 0.000000000000e+00 0.000000000000e+00 0.000000000000e+00 0.000000000000e+00
3.907670000000e+01 -7.782000000833e-01 0.000000000000e+00 0.000000000000e+00 0.000000000000e+00 0.000000000000e+00
3.907670000000e+01 -2.778200000078e+00 0.000000000000e+00 0.000000000000e+00 0.000000000000e+00 0.000000000000e+00
3.907670000000e+01 -4.778200000073e+00 0.000000000000e+00 0.000000000000e+00 0.000000000000e+00 0.000000000000e+00
3.907670000000e+01 -6.778200000067e+00 0.000000000000e+00 0.000000000000e+00 0.000000000000e+00 0.000000000000e+00
3.907670000000e+01 -8.778200000062e+00 0.000000000000e+00 0.000000000000e+00 0.000000000000e+00 0.000000000000e+00
3.907670000000e+01 -1.077820000006e+01 0.000000000000e+00 0.000000000000e+00 0.000000000000e+00 0.000000000000e+00
3.907670000000e+01 -1.277820000005e+01 0.000000000000e+00 0.000000000000e+00 0.000000000000e+00 0.000000000000e+00
3.907670000000e+01 -1.477820000005e+01 0.000000000000e+00 0.000000000000e+00 0.000000000000e+00 0.000000000000e+00
3.907670000000e+01 -1.677820000004e+01 0.000000000000e+00 0.000000000000e+00 0.000000000000e+00 0.000000000000e+00
3.907670000000e+01 -1.877820000003e+01 0.000000000000e+00 0.000000000000e+00 0.000000000000e+00 0.000000000000e+00
3.907670000000e+01 -2.077820000003e+01 0.000000000000e+00 0.000000000000e+00 0.000000000000e+00 0.000000000000e+00
3.907670000000e+01 -2.277820000002e+01 0.000000000000e+00 0.000000000000e+00 0.000000000000e+00 0.000000000000e+00
3.907670000000e+01 -2.477820000002e+01 0.000000000000e+00 0.000000000000e+00 0.000000000000e+00 0.000000000000e+00
3.907670000000e+01 -2.677820000001e+01 0.000000000000e+00 0.000000000000e+00 0.000000000000e+00 0.000000000000e+00
3.907670000000e+01 -2.877820000001e+01 0.000000000000e+00 0.000000000000e+00 0.000000000000e+00 0.000000000000e+00
3.907670000000e+01 -3.077820000000e+01 0.000000000000e+00 0.000000000000e+00 0.000000000000e+00 0.000000000000e+00
4.107670000000e+01 -3.277820000000e+01 0.000000000000e+00 0.000000000000e+00 0.000000000000e+00 0.000000000000e+00
4.107670000000e+01 -3.077820000000e+01 0.000000000000e+00 0.000000000000e+00 0.000000000000e+00 0.000000000000e+00
4.107670000000e+01 -2.877820000000e+01 0.000000000000e+00 0.000000000000e+00 0.000000000000e+00 0.000000000000e+00
4.107670000000e+01 -2.677820000001e+01 0.000000000000e+00 0.000000000000e+00 0.000000000000e+00 0.000000000000e+00
4.107670000000e+01 -2.477820000001e+01 0.000000000000e+00 0.000000000000e+00 0.000000000000e+00 0.000000000000e+00
4.107670000000e+01 -2.277820000001e+01 0.000000000000e+00 0.000000000000e+00 0.000000000000e+00 0.000000000000e+00
4.107670000000e+01 -2.077820000001e+01 0.000000000000e+00 0.000000000000e+00 0.000000000000e+00 0.000000000000e+00
4.107670000000e+01 -1.877820000002e+01 0.000000000000e+00 0.000000000000e+00 0.000000000000e+00 0.000000000000e+00
4.107670000000e+01 -1.677820000002e+01 0.000000000000e+00 0.000000000000e+00 0.000000000000e+00 0.000000000000e+00
4.107670000000e+01 -1.477820000002e+01 0.000000000000e+00 0.000000000000e+00 0.000000000000e+00 0.000000000000e+00
4.107670000000e+01 -1.277820000003e+01 0.000000000000e+00 0.000000000000e+00 0.000000000000e+00 0.000000000000e+00
4.107670000000e+01 -1.077820000003e+01 0.000000000000e+00 0.000000000000e+00 0.000000000000e+00 0.000000000000e+00
4.107670000000e+01 -8.778200000031e+00 0.000000000000e+00 0.000000000000e+00 0.000000000000e+00 0.000000000000e+00
4.107670000000e+01 -6.778200000034e+00 0.000000000000e+00 0.000000000000e+00 0.000000000000e+00 0.000000000000e+00
4.107670000000e+01 -4.778200000037e+00 0.000000000000e+00 0.000000000000e+00 0.000000000000e+00 0.000000000000e+00
4.107670000000e+01 -2.778200000040e+00 0.000000000000e+00 0.000000000000e+00 0.000000000000e+00 0.000000000000e+00
4.107670000000e+01 -7.782000000425e-01 0.000000000000e+00 0.000000000000e+00 0.000000000000e+00 0.000000000000e+00
4.107670000000e+01 1.221799999960e+00 0.000000000000e+00 0.000000000000e+00 0.000000000000e+00 0.000000000000e+00
4.107670000000e+01 3.221799999962e+00 0.000000000000e+00 0.000000000000e+00 0.000000000000e+00 0.000000000000e+00
4.107670000000e+01 5.221799999965e+00 0.000000000000e+00 0.000000000000e+00 0.000000000000e+00 0.000000000000e+00
4.107670000000e+01 7.221799999968e+00 0.000000000000e+00 0.000000000000e+00 0.000000000000e+00 0.000000000000e+00
4.107670000000e+01 9.221799999971e+00 0.000000000000e+00 0.000000000000e+00 0.000000000000e+00 0.000000000000e+00
4.107670000000e+01 1.122179999997e+01 0.000000000000e+00 0.000000000000e+00 0.000000000000e+00 0.000000000000e+00
4.107670000000e+01 1.322179999998e+01 0.000000000000e+00 0.000000000000e+00 0.000000000000e+00 0.000000000000e+00
4.107670000000e+01 1.522179999998e+01 0.000000000000e+00 0.000000000000e+00 0.000000000000e+00 0.000000000000e+00
4.107670000000e+01 1.722179999998e+01 0.000000000000e+00 0.000000000000e+00 0.000000000000e+00 0.000000000000e+00
4.107670000000e+01 1.922179999998e+01 0.000000000000e+00 0.000000000000e+00 0.000000000000e+00 0.000000000000e+00
4.107670000000e+01 2.122179999999e+01 0.000000000000e+00 0.000000000000e+00 0.000000000000e+00 0.000000000000e+00
4.107670000000e+01 2.322179999999e+01 0.000000000000e+00 0.000000000000e+00 0.000000000000e+00 0.000000000000e+00
4.107670000000e+01 2.522179999999e+01 0.000000000000e+00 0.000000000000e+00 0.000000000000e+00 0.000000000000e+00
4.107670000000e+01 2.722179999999e+01 0.000000000000e+00 0.000000000000e+00 0.000000000000e+00 0.000000000000e+00
4.107670000000e+01 2.922180000000e+01 0.000000000000e+00 0.000000000000e+00 0.000000000000e+00 0.000000000000e+00
VARIABLES = "X","Y","Z",VELOCITY_X1,VELOCITY_Y1
ZONE T="1.000000000000e-06s", 
3.907670000000e+01 3.122180000000e+01 0.000000000000e+00 7.808146943783e-07 2.336702487170e-07 0.000000000000e+00
3.907670000000e+01 2.922179999999e+01 0.000000000000e+00 5.555508277080e-07 4.204061800478e-07 0.000000000000e+00
3.907670000000e+01 2.722179999999e+01 0.000000000000e+00 9.146574743998e-07 2.020419212413e-07 0.000000000000e+00
3.907670000000e+01 2.522179999998e+01 0.000000000000e+00 7.162734488596e-07 -8.957914697845e-08 0.000000000000e+00
3.907670000000e+01 2.322179999998e+01 0.000000000000e+00 2.321196212612e-06 5.391378813056e-07 0.000000000000e+00
3.907670000000e+01 2.122179999997e+01 0.000000000000e+00 1.682811362344e-06 7.079379882798e-07 0.000000000000e+00
3.907670000000e+01 1.922179999997e+01 0.000000000000e+00 1.766498891687e-06 7.357273891119e-07 0.000000000000e+00
3.907670000000e+01 1.722179999996e+01 0.000000000000e+00 1.478049586247e-06 5.913463341035e-07 0.000000000000e+00
3.907670000000e+01 1.522179999996e+01 0.000000000000e+00 2.468916897996e-06 3.937526274177e-07 0.000000000000e+00
3.907670000000e+01 1.322179999995e+01 0.000000000000e+00 1.855698270980e-06 2.419010378579e-07 0.000000000000e+00
3.907670000000e+01 1.122179999995e+01 0.000000000000e+00 1.217556377366e-06 -1.899321419975e-07 0.000000000000e+00
3.907670000000e+01 9.221799999942e+00 0.000000000000e+00 2.741534494132e-06 1.944152190054e-07 0.000000000000e+00
3.907670000000e+01 7.221799999937e+00 0.000000000000e+00 3.099125363765e-06 -4.844060569483e-07 0.000000000000e+00
3.907670000000e+01 5.221799999932e+00 0.000000000000e+00 3.581296634588e-06 -1.357737686768e-06 0.000000000000e+00
3.907670000000e+01 3.221799999926e+00 0.000000000000e+00 2.703930739479e-06 6.674728976981e-08 0.000000000000e+00
3.907670000000e+01 1.221799999921e+00 0.000000000000e+00 1.267442067950e-06 1.286761854417e-06 0.000000000000e+00
3.907670000000e+01 -7.782000000833e-01 0.000000000000e+00 1.872246243031e-06 4.980244328178e-07 0.000000000000e+00
3.907670000000e+01 -2.778200000078e+00 0.000000000000e+00 2.605551829136e-06 -1.996861643493e-07 0.000000000000e+00
3.907670000000e+01 -4.778200000073e+00 0.000000000000e+00 2.817937588244e-06 6.435884351875e-07 0.000000000000e+00
3.907670000000e+01 -6.778200000067e+00 0.000000000000e+00 3.049972098717e-06 7.057980521025e-07 0.000000000000e+00
3.907670000000e+01 -8.778200000062e+00 0.000000000000e+00 3.469083389283e-06 -1.505272593806e-07 0.000000000000e+00
3.907670000000e+01 -1.077820000006e+01 0.000000000000e+00 5.653829938830e-06 -6.356146083131e-07 0.000000000000e+00
3.907670000000e+01 -1.277820000005e+01 0.000000000000e+00 3.641338132442e-06 2.378324990919e-08 0.000000000000e+00
3.907670000000e+01 -1.477820000005e+01 0.000000000000e+00 3.425785984190e-06 -2.008548543870e-07 0.000000000000e+00
3.907670000000e+01 -1.677820000004e+01 0.000000000000e+00 5.512302949338e-06 -4.514112940625e-07 0.000000000000e+00
3.907670000000e+01 -1.877820000003e+01 0.000000000000e+00 4.042483598715e-06 -5.382601827258e-07 0.000000000000e+00
3.907670000000e+01 -2.077820000003e+01 0.000000000000e+00 3.939479920176e-06 -1.560309843264e-06 0.000000000000e+00
3.907670000000e+01 -2.277820000002e+01 0.000000000000e+00 4.286283256613e-06 -1.764819214096e-06 0.000000000000e+00
3.907670000000e+01 -2.477820000002e+01 0.000000000000e+00 2.208847282759e-06 -6.158270957470e-07 0.000000000000e+00
3.907670000000e+01 -2.677820000001e+01 0.000000000000e+00 2.162398259599e-06 2.394906577192e-07 0.000000000000e+00
3.907670000000e+01 -2.877820000001e+01 0.000000000000e+00 1.309398499180e-06 9.848052786416e-07 0.000000000000e+00
3.907670000000e+01 -3.077820000000e+01 0.000000000000e+00 2.281149439608e-06 3.450887930824e-07 0.000000000000e+00
4.107670000000e+01 -3.277820000000e+01 0.000000000000e+00 3.413990701502e-07 -5.494783863438e-09 0.000000000000e+00
4.107670000000e+01 -3.077820000000e+01 0.000000000000e+00 3.440139741697e-07 -1.547258092090e-07 0.000000000000e+00
4.107670000000e+01 -2.877820000000e+01 0.000000000000e+00 4.544812428079e-07 -1.539948124364e-07 0.000000000000e+00
4.107670000000e+01 -2.677820000001e+01 0.000000000000e+00 5.426498259487e-07 -1.700503136700e-07 0.000000000000e+00
4.107670000000e+01 -2.477820000001e+01 0.000000000000e+00 6.496237046689e-07 -5.417061057831e-08 0.000000000000e+00
4.107670000000e+01 -2.277820000001e+01 0.000000000000e+00 6.602481716077e-07 1.632428683822e-08 0.000000000000e+00
4.107670000000e+01 -2.077820000001e+01 0.000000000000e+00 6.327708554687e-07 -1.043990752703e-07 0.000000000000e+00
4.107670000000e+01 -1.877820000002e+01 0.000000000000e+00 7.278743989065e-07 7.413248498123e-08 0.000000000000e+00
4.107670000000e+01 -1.677820000002e+01 0.000000000000e+00 6.574024236749e-07 1.540836320782e-07 0.000000000000e+00
4.107670000000e+01 -1.477820000002e+01 0.000000000000e+00 5.436180418100e-07 -7.359028389332e-08 0.000000000000e+00
4.107670000000e+01 -1.277820000003e+01 0.000000000000e+00 6.422342386180e-07 9.302442868930e-08 0.000000000000e+00
4.107670000000e+01 -1.077820000003e+01 0.000000000000e+00 5.726267058630e-07 2.110329450848e-07 0.000000000000e+00
4.107670000000e+01 -8.778200000031e+00 0.000000000000e+00 4.234266862909e-07 7.378765402384e-08 0.000000000000e+00
4.107670000000e+01 -6.778200000034e+00 0.000000000000e+00 4.059361328560e-07 7.513587315482e-08 0.000000000000e+00
4.107670000000e+01 -4.778200000037e+00 0.000000000000e+00 3.623880330885e-07 7.225764828957e-08 0.000000000000e+00
4.107670000000e+01 -2.778200000040e+00 0.000000000000e+00 3.063100754786e-07 -4.201449510914e-08 0.000000000000e+00
4.107670000000e+01 -7.782000000425e-01 0.000000000000e+00 3.370399472093e-07 -2.389735740261e-07 0.000000000000e+00
4.107670000000e+01 1.221799999960e+00 0.000000000000e+00 5.228821386234e-07 -1.023949780112e-07 0.000000000000e+00
4.107670000000e+01 3.221799999962e+00 0.000000000000e+00 5.769054524880e-07 8.669952985822e-08 0.000000000000e+00
4.107670000000e+01 5.221799999965e+00 0.000000000000e+00 5.005257099321e-07 1.352989623751e-07 0.000000000000e+00
4.107670000000e+01 7.221799999968e+00 0.000000000000e+00 4.161659232855e-07 1.775535591228e-07 0.000000000000e+00
4.107670000000e+01 9.221799999971e+00 0.000000000000e+00 2.978597862197e-07 1.041047268892e-07 0.000000000000e+00
4.107670000000e+01 1.122179999997e+01 0.000000000000e+00 2.379786195168e-07 -9.460074545485e-08 0.000000000000e+00
4.107670000000e+01 1.322179999998e+01 0.000000000000e+00 3.295170688843e-07 -4.336908308019e-08 0.000000000000e+00
4.107670000000e+01 1.522179999998e+01 0.000000000000e+00 3.448170058526e-07 -6.043208579125e-08 0.000000000000e+00
4.107670000000e+01 1.722179999998e+01 0.000000000000e+00 3.804018152914e-07 -9.001001570381e-08 0.000000000000e+00
4.107670000000e+01 1.922179999998e+01 0.000000000000e+00 4.475135379158e-07 -1.452449223850e-08 0.000000000000e+00
4.107670000000e+01 2.122179999999e+01 0.000000000000e+00 4.620799782930e-07 1.237298492724e-07 0.000000000000e+00
4.107670000000e+01 2.322179999999e+01 0.000000000000e+00 3.776166587934e-07 3.075116859843e-07 0.000000000000e+00
4.107670000000e+01 2.522179999999e+01 0.000000000000e+00 1.534261644248e-07 7.353482961894e-08 0.000000000000e+00
4.107670000000e+01 2.722179999999e+01 0.000000000000e+00 1.465127793642e-07 1.214694760185e-08 0.000000000000e+00
4.107670000000e+01 2.922180000000e+01 0.000000000000e+00 1.561270189090e-07 -5.185941662275e-09 0.000000000000e+00
VARIABLES = "X","Y","Z",VELOCITY_X1,VELOCITY_Y1
ZONE T="3.000000010000e+02s", 
3.907670000000e+01 3.122180000000e+01 0.000000000000e+00 7.808146953774e-07 2.336702489993e-07 0.000000000000e+00
3.907670000000e+01 2.922179999999e+01 0.000000000000e+00 5.555508283935e-07 4.204061804043e-07 0.000000000000e+00
3.907670000000e+01 2.722179999999e+01 0.000000000000e+00 9.146574754037e-07 2.020419212518e-07 0.000000000000e+00
3.907670000000e+01 2.522179999998e+01 0.000000000000e+00 7.162734495369e-07 -8.957914720077e-08 0.000000000000e+00
3.907670000000e+01 2.322179999998e+01 0.000000000000e+00 2.321196214268e-06 5.391378814044e-07 0.000000000000e+00
3.907670000000e+01 2.122179999997e+01 0.000000000000e+00 1.682811363424e-06 7.079379884613e-07 0.000000000000e+00
3.907670000000e+01 1.922179999997e+01 0.000000000000e+00 1.766498892667e-06 7.357273891595e-07 0.000000000000e+00
3.907670000000e+01 1.722179999996e+01 0.000000000000e+00 1.478049586917e-06 5.913463339155e-07 0.000000000000e+00
3.907670000000e+01 1.522179999996e+01 0.000000000000e+00 2.468916898672e-06 3.937526272962e-07 0.000000000000e+00
3.907670000000e+01 1.322179999995e+01 0.000000000000e+00 1.855698271374e-06 2.419010377347e-07 0.000000000000e+00
3.907670000000e+01 1.122179999995e+01 0.000000000000e+00 1.217556377556e-06 -1.899321420044e-07 0.000000000000e+00
3.907670000000e+01 9.221799999942e+00 0.000000000000e+00 2.741534494583e-06 1.944152184210e-07 0.000000000000e+00
3.907670000000e+01 7.221799999937e+00 0.000000000000e+00 3.099125363579e-06 -4.844060568146e-07 0.000000000000e+00
3.907670000000e+01 5.221799999932e+00 0.000000000000e+00 3.581296634428e-06 -1.357737686458e-06 0.000000000000e+00
3.907670000000e+01 3.221799999926e+00 0.000000000000e+00 2.703930739686e-06 6.674729026948e-08 0.000000000000e+00
3.907670000000e+01 1.221799999921e+00 0.000000000000e+00 1.267442068229e-06 1.286761854537e-06 0.000000000000e+00
3.907670000000e+01 -7.782000000833e-01 0.000000000000e+00 1.872246243283e-06 4.980244322220e-07 0.000000000000e+00
3.907670000000e+01 -2.778200000078e+00 0.000000000000e+00 2.605551828856e-06 -1.996861641143e-07 0.000000000000e+00
3.907670000000e+01 -4.778200000073e+00 0.000000000000e+00 2.817937588082e-06 6.435884335996e-07 0.000000000000e+00
3.907670000000e+01 -6.778200000067e+00 0.000000000000e+00 3.049972097034e-06 7.057980499402e-07 0.000000000000e+00
3.907670000000e+01 -8.778200000062e+00 0.000000000000e+00 3.469083385769e-06 -1.505272593969e-07 0.000000000000e+00
3.907670000000e+01 -1.077820000006e+01 0.000000000000e+00 5.653829932820e-06 -6.356146072000e-07 0.000000000000e+00
3.907670000000e+01 -1.277820000005e+01 0.000000000000e+00 3.641338128864e-06 2.378324963606e-08 0.000000000000e+00
3.907670000000e+01 -1.477820000005e+01 0.000000000000e+00 3.425785980628e-06 -2.008548541553e-07 0.000000000000e+00
3.907670000000e+01 -1.677820000004e+01 0.000000000000e+00 5.512302943538e-06 -4.514112932667e-07 0.000000000000e+00
3.907670000000e+01 -1.877820000003e+01 0.000000000000e+00 4.042483594688e-06 -5.382601817002e-07 0.000000000000e+00
3.907670000000e+01 -2.077820000003e+01 0.000000000000e+00 3.939479916733e-06 -1.560309840895e-06 0.000000000000e+00
3.907670000000e+01 -2.277820000002e+01 0.000000000000e+00 4.286283254259e-06 -1.764819211751e-06 0.000000000000e+00
3.907670000000e+01 -2.477820000002e+01 0.000000000000e+00 2.208847282413e-06 -6.158270943598e-07 0.000000000000e+00
3.907670000000e+01 -2.677820000001e+01 0.000000000000e+00 2.162398260094e-06 2.394906585708e-07 0.000000000000e+00
3.907670000000e+01 -2.877820000001e+01 0.000000000000e+00 1.309398499619e-06 9.848052786534e-07 0.000000000000e+00
3.907670000000e+01 -3.077820000000e+01 0.000000000000e+00 2.281149439992e-06 3.450887928570e-07 0.000000000000e+00
4.107670000000e+01 -3.277820000000e+01 0.000000000000e+00 3.413990702867e-07 -5.494783844040e-09 0.000000000000e+00
4.107670000000e+01 -3.077820000000e+01 0.000000000000e+00 3.440139742877e-07 -1.547258092074e-07 0.000000000000e+00
4.107670000000e+01 -2.877820000000e+01 0.000000000000e+00 4.544812429382e-07 -1.539948123495e-07 0.000000000000e+00
4.107670000000e+01 -2.677820000001e+01 0.000000000000e+00 5.426498260356e-07 -1.700503134620e-07 0.000000000000e+00
4.107670000000e+01 -2.477820000001e+01 0.000000000000e+00 6.496237046193e-07 -5.417061042623e-08 0.000000000000e+00
4.107670000000e+01 -2.277820000001e+01 0.000000000000e+00 6.602481714774e-07 1.632428699030e-08 0.000000000000e+00
4.107670000000e+01 -2.077820000001e+01 0.000000000000e+00 6.327708552515e-07 -1.043990751034e-07 0.000000000000e+00
4.107670000000e+01 -1.877820000002e+01 0.000000000000e+00 7.278743985775e-07 7.413248495175e-08 0.000000000000e+00
4.107670000000e+01 -1.677820000002e+01 0.000000000000e+00 6.574024233894e-07 1.540836319897e-07 0.000000000000e+00
4.107670000000e+01 -1.477820000002e+01 0.000000000000e+00 5.436180415989e-07 -7.359028384599e-08 0.000000000000e+00
4.107670000000e+01 -1.277820000003e+01 0.000000000000e+00 6.422342383324e-07 9.302442859154e-08 0.000000000000e+00
4.107670000000e+01 -1.077820000003e+01 0.000000000000e+00 5.726267056458e-07 2.110329448838e-07 0.000000000000e+00
4.107670000000e+01 -8.778200000031e+00 0.000000000000e+00 4.234266862226e-07 7.378765389116e-08 0.000000000000e+00
4.107670000000e+01 -6.778200000034e+00 0.000000000000e+00 4.059361328560e-07 7.513587303688e-08 0.000000000000e+00
4.107670000000e+01 -4.778200000037e+00 0.000000000000e+00 3.623880331568e-07 7.225764820267e-08 0.000000000000e+00
4.107670000000e+01 -2.778200000040e+00 0.000000000000e+00 3.063100755717e-07 -4.201449517509e-08 0.000000000000e+00
4.107670000000e+01 -7.782000000425e-01 0.000000000000e+00 3.370399473397e-07 -2.389735741029e-07 0.000000000000e+00
4.107670000000e+01 1.221799999960e+00 0.000000000000e+00 5.228821388034e-07 -1.023949780252e-07 0.000000000000e+00
4.107670000000e+01 3.221799999962e+00 0.000000000000e+00 5.769054526618e-07 8.669952988382e-08 0.000000000000e+00
4.107670000000e+01 5.221799999965e+00 0.000000000000e+00 5.005257100811e-07 1.352989623961e-07 0.000000000000e+00
4.107670000000e+01 7.221799999968e+00 0.000000000000e+00 4.161659234345e-07 1.775535591600e-07 0.000000000000e+00
4.107670000000e+01 9.221799999971e+00 0.000000000000e+00 2.978597863376e-07 1.041047268885e-07 0.000000000000e+00
4.107670000000e+01 1.122179999997e+01 0.000000000000e+00 2.379786196347e-07 -9.460074552546e-08 0.000000000000e+00
4.107670000000e+01 1.322179999998e+01 0.000000000000e+00 3.295170690519e-07 -4.336908315468e-08 0.000000000000e+00
4.107670000000e+01 1.522179999998e+01 0.000000000000e+00 3.448170060574e-07 -6.043208588901e-08 0.000000000000e+00
4.107670000000e+01 1.722179999998e+01 0.000000000000e+00 3.804018155459e-07 -9.001001580856e-08 0.000000000000e+00
4.107670000000e+01 1.922179999998e+01 0.000000000000e+00 4.475135382324e-07 -1.452449228272e-08 0.000000000000e+00
4.107670000000e+01 2.122179999999e+01 0.000000000000e+00 4.620799786468e-07 1.237298493337e-07 0.000000000000e+00
4.107670000000e+01 2.322179999999e+01 0.000000000000e+00 3.776166591099e-07 3.075116862008e-07 0.000000000000e+00
4.107670000000e+01 2.522179999999e+01 0.000000000000e+00 1.534261645799e-07 7.353482966084e-08 0.000000000000e+00
4.107670000000e+01 2.722179999999e+01 0.000000000000e+00 1.465127795194e-07 1.214694757702e-08 0.000000000000e+00
4.107670000000e+01 2.922180000000e+01 0.000000000000e+00 1.561270190952e-07 -5.185941694087e-09 0.000000000000e+00
VARIABLES = "X","Y","Z",VELOCITY_X1,VELOCITY_Y1
ZONE T="6.000000010000e+02s", 
3.907670000000e+01 3.122180000000e+01 0.000000000000e+00 7.808146954210e-07 2.336702489848e-07 0.000000000000e+00
3.907670000000e+01 2.922179999999e+01 0.000000000000e+00 5.555508284078e-07 4.204061804247e-07 0.000000000000e+00
3.907670000000e+01 2.722179999999e+01 0.000000000000e+00 9.146574754368e-07 2.020419212526e-07 0.000000000000e+00
3.907670000000e+01 2.522179999998e+01 0.000000000000e+00 7.162734495612e-07 -8.957914720988e-08 0.000000000000e+00
3.907670000000e+01 2.322179999998e+01 0.000000000000e+00 2.321196214392e-06 5.391378814083e-07 0.000000000000e+00
3.907670000000e+01 2.122179999997e+01 0.000000000000e+00 1.682811363469e-06 7.079379884865e-07 0.000000000000e+00
3.907670000000e+01 1.922179999997e+01 0.000000000000e+00 1.766498892727e-06 7.357273891876e-07 0.000000000000e+00
3.907670000000e+01 1.722179999996e+01 0.000000000000e+00 1.478049586962e-06 5.913463339308e-07 0.000000000000e+00
3.907670000000e+01 1.522179999996e+01 0.000000000000e+00 2.468916898758e-06 3.937526273230e-07 0.000000000000e+00
3.907670000000e+01 1.322179999995e+01 0.000000000000e+00 1.855698271448e-06 2.419010377446e-07 0.000000000000e+00
3.907670000000e+01 1.122179999995e+01 0.000000000000e+00 1.217556377608e-06 -1.899321420067e-07 0.000000000000e+00
3.907670000000e+01 9.221799999942e+00 0.000000000000e+00 2.741534494695e-06 1.944152184488e-07 0.000000000000e+00
3.907670000000e+01 7.221799999937e+00 0.000000000000e+00 3.099125363703e-06 -4.844060568453e-07 0.000000000000e+00
3.907670000000e+01 5.221799999932e+00 0.000000000000e+00 3.581296634591e-06 -1.357737686523e-06 0.000000000000e+00
3.907670000000e+01 3.221799999926e+00 0.000000000000e+00 2.703930739818e-06 6.674729028859e-08 0.000000000000e+00
3.907670000000e+01 1.221799999921e+00 0.000000000000e+00 1.267442068280e-06 1.286761854594e-06 0.000000000000e+00
3.907670000000e+01 -7.782000000833e-01 0.000000000000e+00 1.872246243362e-06 4.980244322499e-07 0.000000000000e+00
3.907670000000e+01 -2.778200000078e+00 0.000000000000e+00 2.605551828964e-06 -1.996861641296e-07 0.000000000000e+00
3.907670000000e+01 -4.778200000073e+00 0.000000000000e+00 2.817937588196e-06 6.435884336304e-07 0.000000000000e+00
3.907670000000e+01 -6.778200000067e+00 0.000000000000e+00 3.049972097161e-06 7.057980499764e-07 0.000000000000e+00
3.907670000000e+01 -8.778200000062e+00 0.000000000000e+00 3.469083385919e-06 -1.505272594119e-07 0.000000000000e+00
3.907670000000e+01 -1.077820000006e+01 0.000000000000e+00 5.653829933069e-06 -6.356146072173e-07 0.000000000000e+00
3.907670000000e+01 -1.277820000005e+01 0.000000000000e+00 3.641338129029e-06 2.378324963522e-08 0.000000000000e+00
3.907670000000e+01 -1.477820000005e+01 0.000000000000e+00 3.425785980780e-06 -2.008548541608e-07 0.000000000000e+00
3.907670000000e+01 -1.677820000004e+01 0.000000000000e+00 5.512302943792e-06 -4.514112932999e-07 0.000000000000e+00
3.907670000000e+01 -1.877820000003e+01 0.000000000000e+00 4.042483594852e-06 -5.382601817314e-07 0.000000000000e+00
3.907670000000e+01 -2.077820000003e+01 0.000000000000e+00 3.939479916895e-06 -1.560309840958e-06 0.000000000000e+00
3.907670000000e+01 -2.277820000002e+01 0.000000000000e+00 4.286283254425e-06 -1.764819211813e-06 0.000000000000e+00
3.907670000000e+01 -2.477820000002e+01 0.000000000000e+00 2.208847282498e-06 -6.158270943768e-07 0.000000000000e+00
3.907670000000e+01 -2.677820000001e+01 0.000000000000e+00 2.162398260195e-06 2.394906585687e-07 0.000000000000e+00
3.907670000000e+01 -2.877820000001e+01 0.000000000000e+00 1.309398499681e-06 9.848052786870e-07 0.000000000000e+00
3.907670000000e+01 -3.077820000000e+01 0.000000000000e+00 2.281149440079e-06 3.450887928694e-07 0.000000000000e+00
4.107670000000e+01 -3.277820000000e+01 0.000000000000e+00 3.413990702929e-07 -5.494783850248e-09 0.000000000000e+00
4.107670000000e+01 -3.077820000000e+01 0.000000000000e+00 3.440139743001e-07 -1.547258092137e-07 0.000000000000e+00
4.107670000000e+01 -2.877820000000e+01 0.000000000000e+00 4.544812429631e-07 -1.539948123627e-07 0.000000000000e+00
4.107670000000e+01 -2.677820000001e+01 0.000000000000e+00 5.426498260480e-07 -1.700503134690e-07 0.000000000000e+00
4.107670000000e+01 -2.477820000001e+01 0.000000000000e+00 6.496237046441e-07 -5.417061042545e-08 0.000000000000e+00
4.107670000000e+01 -2.277820000001e+01 0.000000000000e+00 6.602481715022e-07 1.632428698875e-08 0.000000000000e+00
4.107670000000e+01 -2.077820000001e+01 0.000000000000e+00 6.327708552701e-07 -1.043990751143e-07 0.000000000000e+00
4.107670000000e+01 -1.877820000002e+01 0.000000000000e+00 7.278743986148e-07 7.413248495718e-08 0.000000000000e+00
4.107670000000e+01 -1.677820000002e+01 0.000000000000e+00 6.574024234266e-07 1.540836319959e-07 0.000000000000e+00
4.107670000000e+01 -1.477820000002e+01 0.000000000000e+00 5.436180416300e-07 -7.359028385297e-08 0.000000000000e+00
4.107670000000e+01 -1.277820000003e+01 0.000000000000e+00 6.422342383635e-07 9.302442859697e-08 0.000000000000e+00
4.107670000000e+01 -1.077820000003e+01 0.000000000000e+00 5.726267056706e-07 2.110329448908e-07 0.000000000000e+00
4.107670000000e+01 -8.778200000031e+00 0.000000000000e+00 4.234266862412e-07 7.378765388495e-08 0.000000000000e+00
4.107670000000e+01 -6.778200000034e+00 0.000000000000e+00 4.059361328747e-07 7.513587303688e-08 0.000000000000e+00
4.107670000000e+01 -4.778200000037e+00 0.000000000000e+00 3.623880331692e-07 7.225764820267e-08 0.000000000000e+00
4.107670000000e+01 -2.778200000040e+00 0.000000000000e+00 3.063100755841e-07 -4.201449517509e-08 0.000000000000e+00
4.107670000000e+01 -7.782000000425e-01 0.000000000000e+00 3.370399473459e-07 -2.389735741161e-07 0.000000000000e+00
4.107670000000e+01 1.221799999960e+00 0.000000000000e+00 5.228821388221e-07 -1.023949780252e-07 0.000000000000e+00
4.107670000000e+01 3.221799999962e+00 0.000000000000e+00 5.769054526928e-07 8.669952989003e-08 0.000000000000e+00
4.107670000000e+01 5.221799999965e+00 0.000000000000e+00 5.005257101059e-07 1.352989623961e-07 0.000000000000e+00
4.107670000000e+01 7.221799999968e+00 0.000000000000e+00 4.161659234531e-07 1.775535591724e-07 0.000000000000e+00
4.107670000000e+01 9.221799999971e+00 0.000000000000e+00 2.978597863500e-07 1.041047269016e-07 0.000000000000e+00
4.107670000000e+01 1.122179999997e+01 0.000000000000e+00 2.379786196409e-07 -9.460074553787e-08 0.000000000000e+00
4.107670000000e+01 1.322179999998e+01 0.000000000000e+00 3.295170690643e-07 -4.336908314847e-08 0.000000000000e+00
4.107670000000e+01 1.522179999998e+01 0.000000000000e+00 3.448170060574e-07 -6.043208588901e-08 0.000000000000e+00
4.107670000000e+01 1.722179999998e+01 0.000000000000e+00 3.804018155583e-07 -9.001001581399e-08 0.000000000000e+00
4.107670000000e+01 1.922179999998e+01 0.000000000000e+00 4.475135382634e-07 -1.452449227652e-08 0.000000000000e+00
4.107670000000e+01 2.122179999999e+01 0.000000000000e+00 4.620799786655e-07 1.237298493400e-07 0.000000000000e+00
4.107670000000e+01 2.322179999999e+01 0.000000000000e+00 3.776166591286e-07 3.075116862078e-07 0.000000000000e+00
4.107670000000e+01 2.522179999999e+01 0.000000000000e+00 1.534261645861e-07 7.353482966084e-08 0.000000000000e+00
4.107670000000e+01 2.722179999999e+01 0.000000000000e+00 1.465127795256e-07 1.214694757081e-08 0.000000000000e+00
4.107670000000e+01 2.922180000000e+01 0.000000000000e+00 1.561270190952e-07 -5.185941694087e-09 0.000000000000e+00