VARIABLES = "Time","Fluid_flux m3/s","Av._Ch_Ap","Contact_area","Hydraulic_Aperture","P2","P1","Si ppm","Pnorm","Chem Si ppm"
ZONE T=L4
0.000000000000e+00 0.000000000000e+00 0.000000000000e+00 0.000000000000e+00 0.000000000000e+00 0.000000000000e+00 0.000000000000e+00 0.000000000000e+00 0.000000000000e+00 0.000000000000e+00
1.000000000000e-06 8.333333335376e-08 5.809837364281e-04 1.074218750000e-02 5.161637847319e-05 4.890106711373e+06 4.897378435756e+06 0.000000000000e+00 2.041185366649e+03 0.000000000000e+00
3.000000010000e+02 8.333333333385e-08 5.809837363950e-04 1.074218750000e-02 5.161637851593e-05 4.890106711373e+06 4.897378435736e+06 0.000000000000e+00 2.041185361578e+03 0.000000000000e+00
6.000000010000e+02 8.333333333734e-08 5.809837363955e-04 1.074218750000e-02 5.161637851656e-05 4.890106711373e+06 4.897378435736e+06 0.000000000000e+00 2.041185361503e+03 0.000000000000e+00
9.000000010000e+02 8.333333333909e-08 5.809837363955e-04 1.074218750000e-02 5.161637851659e-05 4.890106711373e+06 4.897378435737e+06 0.000000000000e+00 2.041185361500e+03 0.000000000000e+00
1.200000001000e+03 8.333333333036e-08 5.809837363948e-04 1.074218750000e-02 5.161637851546e-05 4.890106711373e+06 4.897378435736e+06 0.000000000000e+00 2.041185361633e+03 0.000000000000e+00
1.500000001000e+03 8.333333333064e-08 5.809837363950e-04 1.074218750000e-02 5.161637851573e-05 4.890106711373e+06 4.897378435736e+06 0.000000000000e+00 2.041185361602e+03 0.000000000000e+00
1.800000001000e+03 8.333333333705e-08 5.809837363954e-04 1.074218750000e-02 5.161637851638e-05 4.890106711373e+06 4.897378435737e+06 0.000000000000e+00 2.041185361524e+03 0.000000000000e+00
2.100000001000e+03 8.333333333846e-08 5.809837363954e-04 1.074218750000e-02 5.161637851643e-05 4.890106711373e+06 4.897378435737e+06 0.000000000000e+00 2.041185361519e+03 0.000000000000e+00
2.400000001000e+03 8.333333334945e-08 5.737529297070e-04 1.171875000001e-02 5.076487817761e-05 4.890105965025e+06 4.897749776288e+06 0.000000000000e+00 2.145630784794e+03 0.000000000000e+00
2.700000001000e+03 8.333333335305e-08 5.680170450188e-04 1.562500000001e-02 4.992888090251e-05 4.890105387897e+06 4.898139622408e+06 0.000000000000e+00 2.255223252930e+03 0.000000000000e+00
3.000000001000e+03 8.333333335935e-08 5.614922267361e-04 1.855468750001e-02 4.902739226454e-05 4.890104185325e+06 4.898589806080e+06 0.000000000000e+00 2.381928136796e+03 0.000000000000e+00
3.300000001000e+03 8.333333346500e-08 5.555719936186e-04 2.246093750002e-02 4.811351059374e-05 4.890103405772e+06 4.899081803952e+06 0.000000000000e+00 2.520251592372e+03 0.000000000000e+00
3.600000001000e+03 8.333333357937e-08 5.504704223446e-04 2.734375000002e-02 4.728401176815e-05 4.890099915132e+06 4.899559172699e+06 0.000000000000e+00 2.655229633882e+03 0.000000000000e+00
3.900000001000e+03 8.333333374565e-08 5.459979939724e-04 3.515625000002e-02 4.626830601867e-05 4.890100117920e+06 4.900196114717e+06 0.000000000000e+00 2.833963409697e+03 0.000000000000e+00
4.200000001000e+03 8.333333329941e-08 5.809837363522e-04 1.074218750000e-02 5.161637853575e-05 4.890106711373e+06 4.897378435725e+06 0.000000000000e+00 2.041185359227e+03 0.000000000000e+00
4.500000001000e+03 8.333333353043e-08 5.598931295077e-04 2.246093750002e-02 4.861302852551e-05 4.890104184002e+06 4.898808646678e+06 0.000000000000e+00 2.443357430163e+03 0.000000000000e+00
4.800000001000e+03 8.333333451185e-08 5.431474470037e-04 4.296875000003e-02 4.538688027412e-05 4.890080162919e+06 4.900775857924e+06 0.000000000000e+00 3.002299685237e+03 0.000000000000e+00
5.100000001000e+03 8.333937720901e-08 5.347930629590e-04 7.910156250009e-02 4.177091901006e-05 4.890078947573e+06 4.903800694510e+06 0.000000000000e+00 3.851438306110e+03 0.000000000000e+00
5.400000001000e+03 8.333484974788e-08 5.274358010373e-04 1.064453125001e-01 3.816227946704e-05 4.890034385237e+06 4.908027443239e+06 0.000000000000e+00 5.050589992181e+03 0.000000000000e+00
5.700000001000e+03 8.332440829665e-08 5.198374521705e-04 1.367187500001e-01 3.521001023120e-05 4.890029030457e+06 4.912935335007e+06 0.000000000000e+00 6.430527248757e+03 0.000000000000e+00
6.000000001000e+03 8.333620750256e-08 5.161635568053e-04 1.611328125001e-01 3.166722139742e-05 4.890034322707e+06 4.921525224924e+06 0.000000000000e+00 8.839244795200e+03 0.000000000000e+00
6.300000001000e+03 8.333333321749e-08 5.805489092142e-04 9.765625000000e-03 5.166165504347e-05 4.890105855217e+06 4.897358477397e+06 0.000000000000e+00 2.035823349070e+03 0.000000000000e+00
6.600000001000e+03 8.333333549950e-08 5.470992229213e-04 3.417968750002e-02 4.643657306011e-05 4.890100381560e+06 4.900087024560e+06 0.000000000000e+00 2.803267554667e+03 0.000000000000e+00
6.900000001000e+03 8.334349168224e-08 5.294489989252e-04 8.691406250008e-02 4.047377335821e-05 4.890079521765e+06 4.905164054126e+06 0.000000000000e+00 4.233737723766e+03 0.000000000000e+00
7.200000001000e+03 8.332379333332e-08 5.192116874378e-04 1.396484375001e-01 3.494708865812e-05 4.890029685681e+06 4.913456717847e+06 0.000000000000e+00 6.576760568744e+03 0.000000000000e+00
7.500000001000e+03 8.333194738930e-08 5.105593869001e-04 1.777343750001e-01 2.930796153204e-05 4.890045782137e+06 4.929768224041e+06 0.000000000000e+00 1.115034225670e+04 0.000000000000e+00
7.800000001000e+03 8.334348028852e-08 5.104948750085e-04 2.285156250001e-01 2.384010629038e-05 4.890076069555e+06 4.963888297779e+06 0.000000000000e+00 2.071669511174e+04 0.000000000000e+00
8.100000001000e+03 8.332999518411e-08 5.050451986004e-04 2.548828125001e-01 1.971277095477e-05 4.890000111719e+06 5.020538899478e+06 0.000000000000e+00 3.664392699237e+04 0.000000000000e+00
8.400000001000e+03 8.333333317366e-08 5.805489090350e-04 9.765625000000e-03 5.166165468218e-05 4.890105855217e+06 4.897358477545e+06 0.000000000000e+00 2.035823391782e+03 0.000000000000e+00
8.700000001000e+03 8.333332744946e-08 5.431474210869e-04 4.296875000003e-02 4.538685408486e-05 4.890080162921e+06 4.900775875534e+06 0.000000000000e+00 3.002304882428e+03 0.000000000000e+00
9.000000001000e+03 8.333415053219e-08 5.274340259139e-04 1.064453125001e-01 3.816236518808e-05 4.890034386509e+06 4.908027172294e+06 0.000000000000e+00 5.050555958059e+03 0.000000000000e+00
9.300000001000e+03 8.333479509113e-08 5.141661308743e-04 1.572265625001e-01 3.191157168174e-05 4.890032779101e+06 4.920805297162e+06 0.000000000000e+00 8.637746494482e+03 0.000000000000e+00
9.600000001000e+03 8.334822609636e-08 5.105518347198e-04 1.992187500002e-01 2.495942317363e-05 4.890076340248e+06 4.954400478130e+06 0.000000000000e+00 1.805266834785e+04 0.000000000000e+00
9.900000001000e+03 8.332811500760e-08 5.065134897447e-04 2.509765625001e-01 1.997046311494e-05 4.890000112338e+06 5.015547706499e+06 0.000000000000e+00 3.524362956247e+04 0.000000000000e+00
1.020000000100e+04 3.831976305468e-10 5.624216571238e-04 6.718750000001e-01 9.659475077713e-06 4.890111764423e+06 4.895213799994e+06 0.000000000000e+00 3.114472193149e+05 0.000000000000e+00
1.050000000100e+04 8.333333326334e-08 5.809837359608e-04 1.074218750000e-02 5.161637727827e-05 4.890106711373e+06 4.897378436253e+06 0.000000000000e+00 2.041185508409e+03 0.000000000000e+00
1.080000000100e+04 8.333333537849e-08 5.470992226053e-04 3.417968750002e-02 4.643657291479e-05 4.890100381560e+06 4.900087024639e+06 0.000000000000e+00 2.803267580985e+03 0.000000000000e+00
1.110000000100e+04 8.334349168432e-08 5.294489989429e-04 8.691406250008e-02 4.047377335875e-05 4.890079521765e+06 4.905164054126e+06 0.000000000000e+00 4.233737723597e+03 0.000000000000e+00
1.140000000100e+04 8.332379333186e-08 5.192116874144e-04 1.396484375001e-01 3.494708865762e-05 4.890029685681e+06 4.913456717847e+06 0.000000000000e+00 6.576760569023e+03 0.000000000000e+00
1.170000000100e+04 8.333194739054e-08 5.105593869000e-04 1.777343750001e-01 2.930796153198e-05 4.890045782137e+06 4.929768224042e+06 0.000000000000e+00 1.115034225676e+04 0.000000000000e+00
1.200000000100e+04 8.334348028537e-08 5.104948749900e-04 2.285156250001e-01 2.384010628977e-05 4.890076069555e+06 4.963888297782e+06 0.000000000000e+00 2.071669511334e+04 0.000000000000e+00
1.230000000100e+04 8.332999518656e-08 5.050451986013e-04 2.548828125001e-01 1.971277095478e-05 4.890000111719e+06 5.020538899482e+06 0.000000000000e+00 3.664392699232e+04 0.000000000000e+00
1.260000000100e+04 8.333333317605e-08 5.805489090350e-04 9.765625000000e-03 5.166165468209e-05 4.890105855217e+06 4.897358477545e+06 0.000000000000e+00 2.035823391793e+03 0.000000000000e+00
1.290000000100e+04 8.333333354533e-08 5.598931295763e-04 2.246093750002e-02 4.861302857358e-05 4.890104184002e+06 4.898808646654e+06 0.000000000000e+00 2.443357422916e+03 0.000000000000e+00
1.320000000100e+04 8.333333451050e-08 5.431474470028e-04 4.296875000003e-02 4.538688027381e-05 4.890080162919e+06 4.900775857924e+06 0.000000000000e+00 3.002299685298e+03 0.000000000000e+00
1.350000000100e+04 8.333937720566e-08 5.347930629588e-04 7.910156250009e-02 4.177091900992e-05 4.890078947573e+06 4.903800694510e+06 0.000000000000e+00 3.851438306150e+03 0.000000000000e+00
1.380000000100e+04 8.333484974619e-08 5.274358010375e-04 1.064453125001e-01 3.816227946709e-05 4.890034385237e+06 4.908027443239e+06 0.000000000000e+00 5.050589992159e+03 0.000000000000e+00
1.410000000100e+04 8.332440830113e-08 5.198374521714e-04 1.367187500001e-01 3.521001023146e-05 4.890029030457e+06 4.912935335008e+06 0.000000000000e+00 6.430527248612e+03 0.000000000000e+00
1.440000000100e+04 8.333620751299e-08 5.161635569875e-04 1.611328125001e-01 3.166722139952e-05 4.890034322707e+06 4.921525224922e+06 0.000000000000e+00 8.839244793441e+03 0.000000000000e+00
1.470000000100e+04 8.333333322032e-08 5.805489092143e-04 9.765625000000e-03 5.166165504356e-05 4.890105855217e+06 4.897358477397e+06 0.000000000000e+00 2.035823349059e+03 0.000000000000e+00
1.500000000100e+04 8.333333334033e-08 5.737529297157e-04 1.171875000001e-02 5.076487818653e-05 4.890105965025e+06 4.897749776283e+06 0.000000000000e+00 2.145630783663e+03 0.000000000000e+00
1.530000000100e+04 8.333333334713e-08 5.680170450184e-04 1.562500000001e-02 4.992888090214e-05 4.890105387897e+06 4.898139622408e+06 0.000000000000e+00 2.255223252980e+03 0.000000000000e+00
1.560000000100e+04 8.333333336632e-08 5.614922267368e-04 1.855468750001e-02 4.902739226524e-05 4.890104185325e+06 4.898589806081e+06 0.000000000000e+00 2.381928136695e+03 0.000000000000e+00
1.590000000100e+04 8.333333345729e-08 5.555719936182e-04 2.246093750002e-02 4.811351059317e-05 4.890103405772e+06 4.899081803951e+06 0.000000000000e+00 2.520251592462e+03 0.000000000000e+00
1.620000000100e+04 8.333333357086e-08 5.504704223436e-04 2.734375000002e-02 4.728401176736e-05 4.890099915132e+06 4.899559172698e+06 0.000000000000e+00 2.655229634016e+03 0.000000000000e+00
1.650000000100e+04 8.333333374950e-08 5.459979939720e-04 3.515625000002e-02 4.626830601869e-05 4.890100117920e+06 4.900196114717e+06 0.000000000000e+00 2.833963409692e+03 0.000000000000e+00
1.680000000100e+04 8.333333330207e-08 5.809837363528e-04 1.074218750000e-02 5.161637853671e-05 4.890106711373e+06 4.897378435725e+06 0.000000000000e+00 2.041185359113e+03 0.000000000000e+00
1.710000000100e+04 8.333333333049e-08 5.809837363948e-04 1.074218750000e-02 5.161637851547e-05 4.890106711373e+06 4.897378435736e+06 0.000000000000e+00 2.041185361632e+03 0.000000000000e+00
1.740000000100e+04 8.333333333196e-08 5.809837363948e-04 1.074218750000e-02 5.161637851557e-05 4.890106711373e+06 4.897378435736e+06 0.000000000000e+00 2.041185361620e+03 0.000000000000e+00
1.770000000100e+04 8.333333334172e-08 5.809837363958e-04 1.074218750000e-02 5.161637851704e-05 4.890106711373e+06 4.897378435737e+06 0.000000000000e+00 2.041185361446e+03 0.000000000000e+00
1.800000000100e+04 8.333333333186e-08 5.809837363948e-04 1.074218750000e-02 5.161637851557e-05 4.890106711373e+06 4.897378435736e+06 0.000000000000e+00 2.041185361620e+03 0.000000000000e+00
1.830000000100e+04 8.333333333449e-08 5.809837363953e-04 1.074218750000e-02 5.161637851615e-05 4.890106711373e+06 4.897378435736e+06 0.000000000000e+00 2.041185361552e+03 0.000000000000e+00
1.860000000100e+04 8.333333333424e-08 5.809837363952e-04 1.074218750000e-02 5.161637851611e-05 4.890106711373e+06 4.897378435736e+06 0.000000000000e+00 2.041185361556e+03 0.000000000000e+00
