VARIABLES = "Time","Fluid_flux m3/s","Av._Ch_Ap","Contact_area","Hydraulic_Aperture","P2","P1","Si ppm","Pnorm","Chem Si ppm"
ZONE T=L4
0.000000000000e+00 0.000000000000e+00 0.000000000000e+00 0.000000000000e+00 0.000000000000e+00 0.000000000000e+00 0.000000000000e+00 0.000000000000e+00 0.000000000000e+00 0.000000000000e+00
1.000000000000e-06 8.333333335111e-08 5.804022145404e-04 9.765625000000e-03 5.181498603964e-05 4.890104809635e+06 4.897293236253e+06 0.000000000000e+00 2.017803542755e+03 0.000000000000e+00
3.000000010000e+02 8.333333333684e-08 5.804022145150e-04 9.765625000000e-03 5.181498608074e-05 4.890104809635e+06 4.897293236235e+06 0.000000000000e+00 2.017803537954e+03 0.000000000000e+00
6.000000010000e+02 8.333333332917e-08 5.804022145142e-04 9.765625000000e-03 5.181498607964e-05 4.890104809635e+06 4.897293236235e+06 0.000000000000e+00 2.017803538082e+03 0.000000000000e+00
9.000000010000e+02 8.333333333212e-08 5.804022145145e-04 9.765625000000e-03 5.181498608008e-05 4.890104809635e+06 4.897293236235e+06 0.000000000000e+00 2.017803538031e+03 0.000000000000e+00
1.200000001000e+03 8.333333333345e-08 5.804022145145e-04 9.765625000000e-03 5.181498608014e-05 4.890104809635e+06 4.897293236235e+06 0.000000000000e+00 2.017803538024e+03 0.000000000000e+00
1.500000001000e+03 8.333333333294e-08 5.804022145146e-04 9.765625000000e-03 5.181498608016e-05 4.890104809635e+06 4.897293236235e+06 0.000000000000e+00 2.017803538022e+03 0.000000000000e+00
1.800000001000e+03 8.333333333694e-08 5.804022145148e-04 9.765625000000e-03 5.181498608073e-05 4.890104809635e+06 4.897293236235e+06 0.000000000000e+00 2.017803537955e+03 0.000000000000e+00
2.100000001000e+03 8.333333333186e-08 5.804022145145e-04 9.765625000000e-03 5.181498608009e-05 4.890104809635e+06 4.897293236235e+06 0.000000000000e+00 2.017803538029e+03 0.000000000000e+00
2.400000001000e+03 8.333333333884e-08 5.734105069902e-04 1.171875000001e-02 5.097156705000e-05 4.890103638298e+06 4.897654839519e+06 0.000000000000e+00 2.119634989434e+03 0.000000000000e+00
2.700000001000e+03 8.333333335033e-08 5.675997841376e-04 1.562500000001e-02 5.018927603956e-05 4.890102471722e+06 4.898012302758e+06 0.000000000000e+00 2.220302986260e+03 0.000000000000e+00
3.000000001000e+03 8.333333336737e-08 5.610997747249e-04 1.855468750001e-02 4.935992486332e-05 4.890101147725e+06 4.898416421073e+06 0.000000000000e+00 2.334111330653e+03 0.000000000000e+00
3.300000001000e+03 8.333333338366e-08 5.555094930746e-04 2.441406250002e-02 4.853626531293e-05 4.890099741348e+06 4.898845569357e+06 0.000000000000e+00 2.454968753722e+03 0.000000000000e+00
3.600000001000e+03 8.333333342158e-08 5.502030639516e-04 2.929687500002e-02 4.777615180902e-05 4.890098401076e+06 4.899268341252e+06 0.000000000000e+00 2.574017757036e+03 0.000000000000e+00
3.900000001000e+03 8.333333350509e-08 5.450589646289e-04 3.613281250002e-02 4.697391063180e-05 4.890097134610e+06 4.899744969207e+06 0.000000000000e+00 2.708163528529e+03 0.000000000000e+00
4.200000001000e+03 8.333333330849e-08 5.804022144822e-04 9.765625000000e-03 5.181498610075e-05 4.890104809635e+06 4.897293236224e+06 0.000000000000e+00 2.017803535615e+03 0.000000000000e+00
4.500000001000e+03 8.333333344733e-08 5.590176954288e-04 2.148437500002e-02 4.902787821924e-05 4.890100589007e+06 4.898585957450e+06 0.000000000000e+00 2.381857309886e+03 0.000000000000e+00
4.800000001000e+03 8.333333412153e-08 5.413757556668e-04 4.296875000003e-02 4.634139161294e-05 4.890096997741e+06 4.900145302306e+06 0.000000000000e+00 2.820576106690e+03 0.000000000000e+00
5.100000001000e+03 8.333332942957e-08 5.313553024394e-04 8.789062500008e-02 4.385729277922e-05 4.890098576027e+06 4.901952837966e+06 0.000000000000e+00 3.327511587201e+03 0.000000000000e+00
5.400000001000e+03 8.333414240167e-08 5.229383255919e-04 1.357421875001e-01 4.159728679010e-05 4.890099562498e+06 4.903992983731e+06 0.000000000000e+00 3.899869040154e+03 0.000000000000e+00
5.700000001000e+03 8.333410764765e-08 5.147592635279e-04 1.816406250001e-01 3.958273315243e-05 4.890106381695e+06 4.906230898146e+06 0.000000000000e+00 4.526137059122e+03 0.000000000000e+00
6.000000001000e+03 8.333373876665e-08 5.142238667193e-04 2.490234375002e-01 3.781351248039e-05 4.890113371693e+06 4.908608657675e+06 0.000000000000e+00 5.191632884826e+03 0.000000000000e+00
6.300000001000e+03 8.333333328086e-08 5.804022144259e-04 9.765625000000e-03 5.181498615997e-05 4.890104809636e+06 4.897293236197e+06 0.000000000000e+00 2.017803528697e+03 0.000000000000e+00
6.600000001000e+03 8.333333411658e-08 5.461965486890e-04 3.515625000002e-02 4.713386097952e-05 4.890097377427e+06 4.899647324275e+06 0.000000000000e+00 2.680686251951e+03 0.000000000000e+00
6.900000001000e+03 8.333331993535e-08 5.269986820602e-04 1.054687500001e-01 4.288018003246e-05 4.890098751673e+06 4.902781989321e+06 0.000000000000e+00 3.560206890747e+03 0.000000000000e+00
7.200000001000e+03 8.333337678190e-08 5.142105550399e-04 1.884765625001e-01 3.935397484453e-05 4.890107235319e+06 4.906514433178e+06 0.000000000000e+00 4.605525864259e+03 0.000000000000e+00
7.500000001000e+03 8.333340930123e-08 5.134895429358e-04 2.998046875002e-01 3.657681229110e-05 4.890118696529e+06 4.910554082050e+06 0.000000000000e+00 5.736242144895e+03 0.000000000000e+00
7.800000001000e+03 8.333339490073e-08 5.199944550983e-04 4.189453125001e-01 3.448139156800e-05 4.890127981940e+06 4.914519900862e+06 0.000000000000e+00 6.846847951626e+03 0.000000000000e+00
8.100000001000e+03 8.333332878194e-08 5.239872912715e-04 5.039062500001e-01 3.308566568729e-05 4.890132471529e+06 4.917743357661e+06 0.000000000000e+00 7.750422988486e+03 0.000000000000e+00
8.400000001000e+03 8.333333328805e-08 5.804022144677e-04 9.765625000000e-03 5.181498621765e-05 4.890104809636e+06 4.897293236174e+06 0.000000000000e+00 2.017803521959e+03 0.000000000000e+00
8.700000001000e+03 8.333333482838e-08 5.413757579040e-04 4.296875000003e-02 4.634139048346e-05 4.890096997740e+06 4.900145303126e+06 0.000000000000e+00 2.820576312927e+03 0.000000000000e+00
9.000000001000e+03 8.333498011013e-08 5.229419007924e-04 1.357421875001e-01 4.159796436421e-05 4.890099563890e+06 4.903992445874e+06 0.000000000000e+00 3.899678472615e+03 0.000000000000e+00
9.300000001000e+03 8.333420370718e-08 5.142285994722e-04 2.490234375002e-01 3.781331398215e-05 4.890113374268e+06 4.908609054712e+06 0.000000000000e+00 5.191714644554e+03 0.000000000000e+00
9.600000001000e+03 8.333338099547e-08 5.176198279627e-04 3.808593750001e-01 3.512632399753e-05 4.890125252713e+06 4.913198150377e+06 0.000000000000e+00 6.476597801789e+03 0.000000000000e+00
9.900000001000e+03 8.333335932442e-08 5.245371631263e-04 4.960937500001e-01 3.324120556377e-05 4.890132091492e+06 4.917357213668e+06 0.000000000000e+00 7.642135585272e+03 0.000000000000e+00
1.020000000100e+04 8.333337033380e-08 5.394588669717e-04 5.996093750001e-01 3.194935219657e-05 4.890136015163e+06 4.920798971337e+06 0.000000000000e+00 8.607139980752e+03 0.000000000000e+00
1.050000000100e+04 8.333333329977e-08 5.804022144881e-04 9.765625000000e-03 5.181498622277e-05 4.890104809636e+06 4.897293236173e+06 0.000000000000e+00 2.017803521361e+03 0.000000000000e+00
1.080000000100e+04 8.333333412084e-08 5.461965486897e-04 3.515625000002e-02 4.713386097987e-05 4.890097377427e+06 4.899647324276e+06 0.000000000000e+00 2.680686251892e+03 0.000000000000e+00
1.110000000100e+04 8.333331994428e-08 5.269986820623e-04 1.054687500001e-01 4.288018003317e-05 4.890098751673e+06 4.902781989321e+06 0.000000000000e+00 3.560206890570e+03 0.000000000000e+00
1.140000000100e+04 8.333337678200e-08 5.142105550402e-04 1.884765625001e-01 3.935397484464e-05 4.890107235319e+06 4.906514433178e+06 0.000000000000e+00 4.605525864223e+03 0.000000000000e+00
1.170000000100e+04 8.333340930146e-08 5.134895429357e-04 2.998046875002e-01 3.657681229101e-05 4.890118696529e+06 4.910554082050e+06 0.000000000000e+00 5.736242144936e+03 0.000000000000e+00
1.200000000100e+04 8.333339489904e-08 5.199944550979e-04 4.189453125001e-01 3.448139156790e-05 4.890127981940e+06 4.914519900861e+06 0.000000000000e+00 6.846847951689e+03 0.000000000000e+00
1.230000000100e+04 8.333332878216e-08 5.239872912721e-04 5.039062500001e-01 3.308566568737e-05 4.890132471529e+06 4.917743357661e+06 0.000000000000e+00 7.750422988425e+03 0.000000000000e+00
1.260000000100e+04 8.333333329209e-08 5.804022144685e-04 9.765625000000e-03 5.181498621852e-05 4.890104809636e+06 4.897293236174e+06 0.000000000000e+00 2.017803521858e+03 0.000000000000e+00
1.290000000100e+04 8.333333344887e-08 5.590176954289e-04 2.148437500002e-02 4.902787821931e-05 4.890100589007e+06 4.898585957450e+06 0.000000000000e+00 2.381857309877e+03 0.000000000000e+00
1.320000000100e+04 8.333333413167e-08 5.413757556689e-04 4.296875000003e-02 4.634139161424e-05 4.890096997741e+06 4.900145302306e+06 0.000000000000e+00 2.820576106451e+03 0.000000000000e+00
1.350000000100e+04 8.333332944068e-08 5.313553024415e-04 8.789062500008e-02 4.385729278002e-05 4.890098576027e+06 4.901952837967e+06 0.000000000000e+00 3.327511587018e+03 0.000000000000e+00
1.380000000100e+04 8.333414240263e-08 5.229383255920e-04 1.357421875001e-01 4.159728679019e-05 4.890099562498e+06 4.903992983731e+06 0.000000000000e+00 3.899869040129e+03 0.000000000000e+00
1.410000000100e+04 8.333410764904e-08 5.147592635287e-04 1.816406250001e-01 3.958273315257e-05 4.890106381695e+06 4.906230898146e+06 0.000000000000e+00 4.526137059073e+03 0.000000000000e+00
1.440000000100e+04 8.333373876696e-08 5.142238667199e-04 2.490234375002e-01 3.781351248050e-05 4.890113371693e+06 4.908608657674e+06 0.000000000000e+00 5.191632884782e+03 0.000000000000e+00
1.470000000100e+04 8.333333328296e-08 5.804022144261e-04 9.765625000000e-03 5.181498616025e-05 4.890104809636e+06 4.897293236197e+06 0.000000000000e+00 2.017803528664e+03 0.000000000000e+00
1.500000000100e+04 8.333333333919e-08 5.734105069905e-04 1.171875000001e-02 5.097156705052e-05 4.890103638298e+06 4.897654839519e+06 0.000000000000e+00 2.119634989369e+03 0.000000000000e+00
1.530000000100e+04 8.333333334213e-08 5.675997841363e-04 1.562500000001e-02 5.018927603819e-05 4.890102471722e+06 4.898012302758e+06 0.000000000000e+00 2.220302986442e+03 0.000000000000e+00
1.560000000100e+04 8.333333335778e-08 5.610997747240e-04 1.855468750001e-02 4.935992486263e-05 4.890101147725e+06 4.898416421073e+06 0.000000000000e+00 2.334111330752e+03 0.000000000000e+00
1.590000000100e+04 8.333333339015e-08 5.555094930750e-04 2.441406250002e-02 4.853626531348e-05 4.890099741348e+06 4.898845569358e+06 0.000000000000e+00 2.454968753640e+03 0.000000000000e+00
1.620000000100e+04 8.333333342825e-08 5.502030639525e-04 2.929687500002e-02 4.777615180984e-05 4.890098401076e+06 4.899268341253e+06 0.000000000000e+00 2.574017756903e+03 0.000000000000e+00
1.650000000100e+04 8.333333350397e-08 5.450589646290e-04 3.613281250002e-02 4.697391063179e-05 4.890097134610e+06 4.899744969207e+06 0.000000000000e+00 2.708163528532e+03 0.000000000000e+00
1.680000000100e+04 8.333333331710e-08 5.804022144831e-04 9.765625000000e-03 5.181498610206e-05 4.890104809636e+06 4.897293236224e+06 0.000000000000e+00 2.017803535463e+03 0.000000000000e+00
1.710000000100e+04 8.333333333189e-08 5.804022145146e-04 9.765625000000e-03 5.181498608027e-05 4.890104809635e+06 4.897293236235e+06 0.000000000000e+00 2.017803538009e+03 0.000000000000e+00
1.740000000100e+04 8.333333333325e-08 5.804022145147e-04 9.765625000000e-03 5.181498608030e-05 4.890104809635e+06 4.897293236235e+06 0.000000000000e+00 2.017803538005e+03 0.000000000000e+00
1.770000000100e+04 8.333333333112e-08 5.804022145144e-04 9.765625000000e-03 5.181498608001e-05 4.890104809635e+06 4.897293236235e+06 0.000000000000e+00 2.017803538039e+03 0.000000000000e+00
1.800000000100e+04 8.333333333371e-08 5.804022145148e-04 9.765625000000e-03 5.181498608053e-05 4.890104809635e+06 4.897293236235e+06 0.000000000000e+00 2.017803537978e+03 0.000000000000e+00
1.830000000100e+04 8.333333333188e-08 5.804022145145e-04 9.765625000000e-03 5.181498608006e-05 4.890104809635e+06 4.897293236235e+06 0.000000000000e+00 2.017803538033e+03 0.000000000000e+00
1.860000000100e+04 8.333333333095e-08 5.804022145145e-04 9.765625000000e-03 5.181498608012e-05 4.890104809635e+06 4.897293236235e+06 0.000000000000e+00 2.017803538026e+03 0.000000000000e+00
