 TITLE = "Profiles along polylines"
 VARIABLES = "DIST" "PRESSURE1" 
 ZONE T="TIME=0.000000000000e+00"
0.000000000000e+00 0.000000000000e+00 
1.999999999994e+00 0.000000000000e+00 
3.999999999989e+00 0.000000000000e+00 
5.999999999983e+00 0.000000000000e+00 
7.999999999978e+00 0.000000000000e+00 
9.999999999972e+00 0.000000000000e+00 
1.199999999997e+01 0.000000000000e+00 
1.399999999996e+01 0.000000000000e+00 
1.599999999996e+01 0.000000000000e+00 
1.799999999995e+01 0.000000000000e+00 
1.999999999994e+01 0.000000000000e+00 
2.199999999994e+01 0.000000000000e+00 
2.399999999993e+01 0.000000000000e+00 
2.599999999993e+01 0.000000000000e+00 
2.799999999992e+01 0.000000000000e+00 
2.999999999992e+01 0.000000000000e+00 
3.199999999991e+01 0.000000000000e+00 
3.399999999992e+01 0.000000000000e+00 
3.599999999992e+01 0.000000000000e+00 
3.799999999993e+01 0.000000000000e+00 
3.999999999993e+01 0.000000000000e+00 
4.199999999994e+01 0.000000000000e+00 
4.399999999994e+01 0.000000000000e+00 
4.599999999995e+01 0.000000000000e+00 
4.799999999996e+01 0.000000000000e+00 
4.999999999996e+01 0.000000000000e+00 
5.199999999997e+01 0.000000000000e+00 
5.399999999997e+01 0.000000000000e+00 
5.599999999998e+01 0.000000000000e+00 
5.799999999998e+01 0.000000000000e+00 
5.999999999999e+01 0.000000000000e+00 
6.199999999999e+01 0.000000000000e+00 
6.400000000000e+01 0.000000000000e+00 
 TITLE = "Profiles along polylines"
 VARIABLES = "DIST" "PRESSURE1" 
 ZONE T="TIME=1.000000000000e-06"
0.000000000000e+00 4.897535209601e+06 
1.999999999994e+00 4.897558169551e+06 
3.999999999989e+00 4.897602365279e+06 
5.999999999983e+00 4.897631789785e+06 
7.999999999978e+00 4.897645559915e+06 
9.999999999972e+00 4.897643687824e+06 
1.199999999997e+01 4.897607810454e+06 
1.399999999996e+01 4.897554969656e+06 
1.599999999996e+01 4.897510121865e+06 
1.799999999995e+01 4.897463839967e+06 
1.999999999994e+01 4.897428536003e+06 
2.199999999994e+01 4.897418112041e+06 
2.399999999993e+01 4.897427940381e+06 
2.599999999993e+01 4.897432437524e+06 
2.799999999992e+01 4.897424914870e+06 
2.999999999992e+01 4.897404291885e+06 
3.199999999991e+01 4.897378435756e+06 
3.399999999992e+01 4.897356012552e+06 
3.599999999992e+01 4.897317310908e+06 
3.799999999993e+01 4.897263941016e+06 
3.999999999993e+01 4.897180282723e+06 
4.199999999994e+01 4.897048433726e+06 
4.399999999994e+01 4.897002653261e+06 
4.599999999995e+01 4.897035227980e+06 
4.799999999996e+01 4.897136011449e+06 
4.999999999996e+01 4.897181096368e+06 
5.199999999997e+01 4.897242298770e+06 
5.399999999997e+01 4.897303735413e+06 
5.599999999998e+01 4.897366047993e+06 
5.799999999998e+01 4.897418205446e+06 
5.999999999999e+01 4.897454654401e+06 
6.199999999999e+01 4.897490623422e+06 
6.400000000000e+01 4.897511824889e+06 
 ZONE T="TIME=3.000000010000e+02"
0.000000000000e+00 4.897535209581e+06 
1.999999999994e+00 4.897558169532e+06 
3.999999999989e+00 4.897602365260e+06 
5.999999999983e+00 4.897631789766e+06 
7.999999999978e+00 4.897645559896e+06 
9.999999999972e+00 4.897643687804e+06 
1.199999999997e+01 4.897607810434e+06 
1.399999999996e+01 4.897554969637e+06 
1.599999999996e+01 4.897510121846e+06 
1.799999999995e+01 4.897463839948e+06 
1.999999999994e+01 4.897428535983e+06 
2.199999999994e+01 4.897418112021e+06 
2.399999999993e+01 4.897427940361e+06 
2.599999999993e+01 4.897432437504e+06 
2.799999999992e+01 4.897424914850e+06 
2.999999999992e+01 4.897404291865e+06 
3.199999999991e+01 4.897378435736e+06 
3.399999999992e+01 4.897356012532e+06 
3.599999999992e+01 4.897317310888e+06 
3.799999999993e+01 4.897263940997e+06 
3.999999999993e+01 4.897180282703e+06 
4.199999999994e+01 4.897048433706e+06 
4.399999999994e+01 4.897002653241e+06 
4.599999999995e+01 4.897035227960e+06 
4.799999999996e+01 4.897136011430e+06 
4.999999999996e+01 4.897181096348e+06 
5.199999999997e+01 4.897242298750e+06 
5.399999999997e+01 4.897303735394e+06 
5.599999999998e+01 4.897366047973e+06 
5.799999999998e+01 4.897418205426e+06 
5.999999999999e+01 4.897454654381e+06 
6.199999999999e+01 4.897490623402e+06 
6.400000000000e+01 4.897511824870e+06 
 ZONE T="TIME=6.000000010000e+02"
0.000000000000e+00 4.897535209581e+06 
1.999999999994e+00 4.897558169532e+06 
3.999999999989e+00 4.897602365260e+06 
5.999999999983e+00 4.897631789766e+06 
7.999999999978e+00 4.897645559896e+06 
9.999999999972e+00 4.897643687804e+06 
1.199999999997e+01 4.897607810434e+06 
1.399999999996e+01 4.897554969637e+06 
1.599999999996e+01 4.897510121846e+06 
1.799999999995e+01 4.897463839948e+06 
1.999999999994e+01 4.897428535983e+06 
2.199999999994e+01 4.897418112022e+06 
2.399999999993e+01 4.897427940361e+06 
2.599999999993e+01 4.897432437504e+06 
2.799999999992e+01 4.897424914850e+06 
2.999999999992e+01 4.897404291865e+06 
3.199999999991e+01 4.897378435736e+06 
3.399999999992e+01 4.897356012532e+06 
3.599999999992e+01 4.897317310888e+06 
3.799999999993e+01 4.897263940997e+06 
3.999999999993e+01 4.897180282703e+06 
4.199999999994e+01 4.897048433706e+06 
4.399999999994e+01 4.897002653241e+06 
4.599999999995e+01 4.897035227960e+06 
4.799999999996e+01 4.897136011430e+06 
4.999999999996e+01 4.897181096348e+06 
5.199999999997e+01 4.897242298750e+06 
5.399999999997e+01 4.897303735394e+06 
5.599999999998e+01 4.897366047973e+06 
5.799999999998e+01 4.897418205426e+06 
5.999999999999e+01 4.897454654381e+06 
6.199999999999e+01 4.897490623402e+06 
6.400000000000e+01 4.897511824870e+06 
 ZONE T="TIME=9.000000010000e+02"
0.000000000000e+00 4.897535209582e+06 
1.999999999994e+00 4.897558169532e+06 
3.999999999989e+00 4.897602365260e+06 
5.999999999983e+00 4.897631789766e+06 
7.999999999978e+00 4.897645559896e+06 
9.999999999972e+00 4.897643687804e+06 
1.199999999997e+01 4.897607810434e+06 
1.399999999996e+01 4.897554969637e+06 
1.599999999996e+01 4.897510121846e+06 
1.799999999995e+01 4.897463839948e+06 
1.999999999994e+01 4.897428535983e+06 
2.199999999994e+01 4.897418112022e+06 
2.399999999993e+01 4.897427940361e+06 
2.599999999993e+01 4.897432437504e+06 
2.799999999992e+01 4.897424914850e+06 
2.999999999992e+01 4.897404291866e+06 
3.199999999991e+01 4.897378435737e+06 
3.399999999992e+01 4.897356012533e+06 
3.599999999992e+01 4.897317310888e+06 
3.799999999993e+01 4.897263940997e+06 
3.999999999993e+01 4.897180282703e+06 
4.199999999994e+01 4.897048433706e+06 
4.399999999994e+01 4.897002653241e+06 
4.599999999995e+01 4.897035227960e+06 
4.799999999996e+01 4.897136011430e+06 
4.999999999996e+01 4.897181096348e+06 
5.199999999997e+01 4.897242298750e+06 
5.399999999997e+01 4.897303735394e+06 
5.599999999998e+01 4.897366047974e+06 
5.799999999998e+01 4.897418205426e+06 
5.999999999999e+01 4.897454654381e+06 
6.199999999999e+01 4.897490623402e+06 
6.400000000000e+01 4.897511824870e+06 
 ZONE T="TIME=1.200000001000e+03"
0.000000000000e+00 4.897535209581e+06 
1.999999999994e+00 4.897558169532e+06 
3.999999999989e+00 4.897602365260e+06 
5.999999999983e+00 4.897631789766e+06 
7.999999999978e+00 4.897645559896e+06 
9.999999999972e+00 4.897643687804e+06 
1.199999999997e+01 4.897607810434e+06 
1.399999999996e+01 4.897554969636e+06 
1.599999999996e+01 4.897510121845e+06 
1.799999999995e+01 4.897463839947e+06 
1.999999999994e+01 4.897428535983e+06 
2.199999999994e+01 4.897418112021e+06 
2.399999999993e+01 4.897427940361e+06 
2.599999999993e+01 4.897432437504e+06 
2.799999999992e+01 4.897424914850e+06 
2.999999999992e+01 4.897404291865e+06 
3.199999999991e+01 4.897378435736e+06 
3.399999999992e+01 4.897356012532e+06 
3.599999999992e+01 4.897317310888e+06 
3.799999999993e+01 4.897263940996e+06 
3.999999999993e+01 4.897180282703e+06 
4.199999999994e+01 4.897048433706e+06 
4.399999999994e+01 4.897002653241e+06 
4.599999999995e+01 4.897035227960e+06 
4.799999999996e+01 4.897136011429e+06 
4.999999999996e+01 4.897181096348e+06 
5.199999999997e+01 4.897242298750e+06 
5.399999999997e+01 4.897303735394e+06 
5.599999999998e+01 4.897366047973e+06 
5.799999999998e+01 4.897418205426e+06 
5.999999999999e+01 4.897454654381e+06 
6.199999999999e+01 4.897490623402e+06 
6.400000000000e+01 4.897511824869e+06 
 ZONE T="TIME=1.500000001000e+03"
0.000000000000e+00 4.897535209581e+06 
1.999999999994e+00 4.897558169531e+06 
3.999999999989e+00 4.897602365260e+06 
5.999999999983e+00 4.897631789766e+06 
7.999999999978e+00 4.897645559895e+06 
9.999999999972e+00 4.897643687804e+06 
1.199999999997e+01 4.897607810434e+06 
1.399999999996e+01 4.897554969636e+06 
1.599999999996e+01 4.897510121845e+06 
1.799999999995e+01 4.897463839947e+06 
1.999999999994e+01 4.897428535983e+06 
2.199999999994e+01 4.897418112021e+06 
2.399999999993e+01 4.897427940361e+06 
2.599999999993e+01 4.897432437504e+06 
2.799999999992e+01 4.897424914850e+06 
2.999999999992e+01 4.897404291865e+06 
3.199999999991e+01 4.897378435736e+06 
3.399999999992e+01 4.897356012532e+06 
3.599999999992e+01 4.897317310888e+06 
3.799999999993e+01 4.897263940996e+06 
3.999999999993e+01 4.897180282702e+06 
4.199999999994e+01 4.897048433706e+06 
4.399999999994e+01 4.897002653241e+06 
4.599999999995e+01 4.897035227960e+06 
4.799999999996e+01 4.897136011429e+06 
4.999999999996e+01 4.897181096348e+06 
5.199999999997e+01 4.897242298750e+06 
5.399999999997e+01 4.897303735393e+06 
5.599999999998e+01 4.897366047973e+06 
5.799999999998e+01 4.897418205426e+06 
5.999999999999e+01 4.897454654381e+06 
6.199999999999e+01 4.897490623402e+06 
6.400000000000e+01 4.897511824869e+06 
 ZONE T="TIME=1.800000001000e+03"
0.000000000000e+00 4.897535209581e+06 
1.999999999994e+00 4.897558169532e+06 
3.999999999989e+00 4.897602365260e+06 
5.999999999983e+00 4.897631789766e+06 
7.999999999978e+00 4.897645559896e+06 
9.999999999972e+00 4.897643687804e+06 
1.199999999997e+01 4.897607810434e+06 
1.399999999996e+01 4.897554969637e+06 
1.599999999996e+01 4.897510121846e+06 
1.799999999995e+01 4.897463839948e+06 
1.999999999994e+01 4.897428535983e+06 
2.199999999994e+01 4.897418112022e+06 
2.399999999993e+01 4.897427940361e+06 
2.599999999993e+01 4.897432437504e+06 
2.799999999992e+01 4.897424914850e+06 
2.999999999992e+01 4.897404291865e+06 
3.199999999991e+01 4.897378435737e+06 
3.399999999992e+01 4.897356012532e+06 
3.599999999992e+01 4.897317310888e+06 
3.799999999993e+01 4.897263940997e+06 
3.999999999993e+01 4.897180282703e+06 
4.199999999994e+01 4.897048433706e+06 
4.399999999994e+01 4.897002653241e+06 
4.599999999995e+01 4.897035227960e+06 
4.799999999996e+01 4.897136011430e+06 
4.999999999996e+01 4.897181096348e+06 
5.199999999997e+01 4.897242298750e+06 
5.399999999997e+01 4.897303735394e+06 
5.599999999998e+01 4.897366047974e+06 
5.799999999998e+01 4.897418205426e+06 
5.999999999999e+01 4.897454654381e+06 
6.199999999999e+01 4.897490623402e+06 
6.400000000000e+01 4.897511824870e+06 
 ZONE T="TIME=2.100000001000e+03"
0.000000000000e+00 4.897535209582e+06 
1.999999999994e+00 4.897558169532e+06 
3.999999999989e+00 4.897602365260e+06 
5.999999999983e+00 4.897631789766e+06 
7.999999999978e+00 4.897645559896e+06 
9.999999999972e+00 4.897643687804e+06 
1.199999999997e+01 4.897607810434e+06 
1.399999999996e+01 4.897554969637e+06 
1.599999999996e+01 4.897510121846e+06 
1.799999999995e+01 4.897463839948e+06 
1.999999999994e+01 4.897428535983e+06 
2.199999999994e+01 4.897418112022e+06 
2.399999999993e+01 4.897427940361e+06 
2.599999999993e+01 4.897432437504e+06 
2.799999999992e+01 4.897424914850e+06 
2.999999999992e+01 4.897404291866e+06 
3.199999999991e+01 4.897378435737e+06 
3.399999999992e+01 4.897356012533e+06 
3.599999999992e+01 4.897317310888e+06 
3.799999999993e+01 4.897263940997e+06 
3.999999999993e+01 4.897180282703e+06 
4.199999999994e+01 4.897048433706e+06 
4.399999999994e+01 4.897002653241e+06 
4.599999999995e+01 4.897035227960e+06 
4.799999999996e+01 4.897136011430e+06 
4.999999999996e+01 4.897181096348e+06 
5.199999999997e+01 4.897242298750e+06 
5.399999999997e+01 4.897303735394e+06 
5.599999999998e+01 4.897366047974e+06 
5.799999999998e+01 4.897418205426e+06 
5.999999999999e+01 4.897454654381e+06 
6.199999999999e+01 4.897490623402e+06 
6.400000000000e+01 4.897511824870e+06 
 ZONE T="TIME=2.400000001000e+03"
0.000000000000e+00 4.897911023181e+06 
1.999999999994e+00 4.897934284001e+06 
3.999999999989e+00 4.897978978333e+06 
5.999999999983e+00 4.898008639933e+06 
7.999999999978e+00 4.898022421684e+06 
9.999999999972e+00 4.898020346845e+06 
1.199999999997e+01 4.897984007053e+06 
1.399999999996e+01 4.897930404650e+06 
1.599999999996e+01 4.897884735098e+06 
1.799999999995e+01 4.897837588950e+06 
1.999999999994e+01 4.897801576850e+06 
2.199999999994e+01 4.897790850355e+06 
2.399999999993e+01 4.897800661909e+06 
2.599999999993e+01 4.897805030342e+06 
2.799999999992e+01 4.897797217248e+06 
2.999999999992e+01 4.897776157890e+06 
3.199999999991e+01 4.897749776288e+06 
3.399999999992e+01 4.897726833610e+06 
3.599999999992e+01 4.897687447248e+06 
3.799999999993e+01 4.897633240570e+06 
3.999999999993e+01 4.897548512093e+06 
4.199999999994e+01 4.897414631860e+06 
4.399999999994e+01 4.897367878219e+06 
4.599999999995e+01 4.897401014674e+06 
4.799999999996e+01 4.897503355067e+06 
4.999999999996e+01 4.897549143296e+06 
5.199999999997e+01 4.897611267087e+06 
5.399999999997e+01 4.897673587265e+06 
5.599999999998e+01 4.897736732504e+06 
5.799999999998e+01 4.897789552995e+06 
5.999999999999e+01 4.897826470569e+06 
6.199999999999e+01 4.897862792988e+06 
6.400000000000e+01 4.897884128654e+06 
 ZONE T="TIME=2.700000001000e+03"
0.000000000000e+00 4.898302519685e+06 
1.999999999994e+00 4.898326096863e+06 
3.999999999989e+00 4.898371338421e+06 
5.999999999983e+00 4.898401311485e+06 
7.999999999978e+00 4.898415197854e+06 
9.999999999972e+00 4.898413035894e+06 
1.199999999997e+01 4.898376365616e+06 
1.399999999996e+01 4.898322149338e+06 
1.599999999996e+01 4.898275826522e+06 
1.799999999995e+01 4.898228007914e+06 
1.999999999994e+01 4.898191465365e+06 
2.199999999994e+01 4.898180614778e+06 
2.399999999993e+01 4.898190634827e+06 
2.599999999993e+01 4.898195159232e+06 
2.799999999992e+01 4.898187354249e+06 
2.999999999992e+01 4.898166203583e+06 
3.199999999991e+01 4.898139622408e+06 
3.399999999992e+01 4.898116522754e+06 
3.599999999992e+01 4.898076857279e+06 
3.799999999993e+01 4.898022224480e+06 
3.999999999993e+01 4.897936890791e+06 
4.199999999994e+01 4.897801495330e+06 
4.399999999994e+01 4.897753989766e+06 
4.599999999995e+01 4.897787768944e+06 
4.799999999996e+01 4.897891809756e+06 
4.999999999996e+01 4.897938435811e+06 
5.199999999997e+01 4.898001609689e+06 
5.399999999997e+01 4.898064928234e+06 
5.599999999998e+01 4.898129005013e+06 
5.799999999998e+01 4.898182586970e+06 
5.999999999999e+01 4.898220037918e+06 
6.199999999999e+01 4.898256729166e+06 
6.400000000000e+01 4.898278194136e+06 
 ZONE T="TIME=3.000000001000e+03"
0.000000000000e+00 4.898750874968e+06 
1.999999999994e+00 4.898774828187e+06 
3.999999999989e+00 4.898820741426e+06 
5.999999999983e+00 4.898851143134e+06 
7.999999999978e+00 4.898865242559e+06 
9.999999999972e+00 4.898863099302e+06 
1.199999999997e+01 4.898826185705e+06 
1.399999999996e+01 4.898771421529e+06 
1.599999999996e+01 4.898724536284e+06 
1.799999999995e+01 4.898676165035e+06 
1.999999999994e+01 4.898639228600e+06 
2.199999999994e+01 4.898628476285e+06 
2.399999999993e+01 4.898639065437e+06 
2.599999999993e+01 4.898644193502e+06 
2.799999999992e+01 4.898636848044e+06 
2.999999999992e+01 4.898616116398e+06 
3.199999999991e+01 4.898589806080e+06 
3.399999999992e+01 4.898567087799e+06 
3.599999999992e+01 4.898527726169e+06 
3.799999999993e+01 4.898473231888e+06 
3.999999999993e+01 4.898387914476e+06 
4.199999999994e+01 4.898251595868e+06 
4.399999999994e+01 4.898203517971e+06 
4.599999999995e+01 4.898237924721e+06 
4.799999999996e+01 4.898343436781e+06 
4.999999999996e+01 4.898390739171e+06 
5.199999999997e+01 4.898454757949e+06 
5.399999999997e+01 4.898518880686e+06 
5.599999999998e+01 4.898583709423e+06 
5.799999999998e+01 4.898637874261e+06 
5.999999999999e+01 4.898675740924e+06 
6.199999999999e+01 4.898712760860e+06 
6.400000000000e+01 4.898734354229e+06 
 ZONE T="TIME=3.300000001000e+03"
0.000000000000e+00 4.899248076418e+06 
1.999999999994e+00 4.899272333319e+06 
3.999999999989e+00 4.899318734791e+06 
5.999999999983e+00 4.899349343458e+06 
7.999999999978e+00 4.899363414118e+06 
9.999999999972e+00 4.899361019679e+06 
1.199999999997e+01 4.899323600407e+06 
1.399999999996e+01 4.899268024692e+06 
1.599999999996e+01 4.899220251111e+06 
1.799999999995e+01 4.899170938946e+06 
1.999999999994e+01 4.899133226559e+06 
2.199999999994e+01 4.899122126399e+06 
2.399999999993e+01 4.899132661345e+06 
2.599999999993e+01 4.899137612011e+06 
2.799999999992e+01 4.899129922601e+06 
2.999999999992e+01 4.899108695617e+06 
3.199999999991e+01 4.899081803952e+06 
3.399999999992e+01 4.899058510301e+06 
3.599999999992e+01 4.899018406852e+06 
3.799999999993e+01 4.898963020484e+06 
3.999999999993e+01 4.898876583290e+06 
4.199999999994e+01 4.898738171234e+06 
4.399999999994e+01 4.898689071535e+06 
4.599999999995e+01 4.898724055846e+06 
4.799999999996e+01 4.898831148246e+06 
4.999999999996e+01 4.898879165535e+06 
5.199999999997e+01 4.898944118692e+06 
5.399999999997e+01 4.899009136274e+06 
5.599999999998e+01 4.899074805135e+06 
5.799999999998e+01 4.899129636012e+06 
5.999999999999e+01 4.899167975979e+06 
6.199999999999e+01 4.899205349635e+06 
6.400000000000e+01 4.899227074358e+06 
 ZONE T="TIME=3.600000001000e+03"
0.000000000000e+00 4.899738062288e+06 
1.999999999994e+00 4.899763019104e+06 
3.999999999989e+00 4.899810919333e+06 
5.999999999983e+00 4.899843138633e+06 
7.999999999978e+00 4.899859278599e+06 
9.999999999972e+00 4.899865064798e+06 
1.199999999997e+01 4.899824286378e+06 
1.399999999996e+01 4.899758173429e+06 
1.599999999996e+01 4.899706520406e+06 
1.799999999995e+01 4.899654611104e+06 
1.999999999994e+01 4.899615207671e+06 
2.199999999994e+01 4.899603181551e+06 
2.399999999993e+01 4.899613210360e+06 
2.599999999993e+01 4.899617525182e+06 
2.799999999992e+01 4.899609082790e+06 
2.999999999992e+01 4.899586965387e+06 
3.199999999991e+01 4.899559172699e+06 
3.399999999992e+01 4.899535006228e+06 
3.599999999992e+01 4.899493869661e+06 
3.799999999993e+01 4.899437332740e+06 
3.999999999993e+01 4.899349516855e+06 
4.199999999994e+01 4.899208804964e+06 
4.399999999994e+01 4.899158604855e+06 
4.599999999995e+01 4.899194088009e+06 
4.799999999996e+01 4.899302610062e+06 
4.999999999996e+01 4.899351251611e+06 
5.199999999997e+01 4.899417040884e+06 
5.399999999997e+01 4.899482861804e+06 
5.599999999998e+01 4.899549286726e+06 
5.799999999998e+01 4.899604712740e+06 
5.999999999999e+01 4.899643477623e+06 
6.199999999999e+01 4.899681173682e+06 
6.400000000000e+01 4.899703018921e+06 
 ZONE T="TIME=3.900000001000e+03"
0.000000000000e+00 4.900383736915e+06 
1.999999999994e+00 4.900408981373e+06 
3.999999999989e+00 4.900457323679e+06 
5.999999999983e+00 4.900489685833e+06 
7.999999999978e+00 4.900505712875e+06 
9.999999999972e+00 4.900510999851e+06 
1.199999999997e+01 4.900469737960e+06 
1.399999999996e+01 4.900402939567e+06 
1.599999999996e+01 4.900350336306e+06 
1.799999999995e+01 4.900297369918e+06 
1.999999999994e+01 4.900257036839e+06 
2.199999999994e+01 4.900244420234e+06 
2.399999999993e+01 4.900254001744e+06 
2.599999999993e+01 4.900257628247e+06 
2.799999999992e+01 4.900248304026e+06 
2.999999999992e+01 4.900225072617e+06 
3.199999999991e+01 4.900196114717e+06 
3.399999999992e+01 4.900170715524e+06 
3.599999999992e+01 4.900128128773e+06 
3.799999999993e+01 4.900070007549e+06 
3.999999999993e+01 4.899980322672e+06 
4.199999999994e+01 4.899836756814e+06 
4.399999999994e+01 4.899785210959e+06 
4.599999999995e+01 4.899821161044e+06 
4.799999999996e+01 4.899931109379e+06 
4.999999999996e+01 4.899980336750e+06 
5.199999999997e+01 4.900046943481e+06 
5.399999999997e+01 4.900113556021e+06 
5.599999999998e+01 4.900180730720e+06 
5.799999999998e+01 4.900236738547e+06 
5.999999999999e+01 4.900275922332e+06 
6.199999999999e+01 4.900313948782e+06 
6.400000000000e+01 4.900335920647e+06 
 ZONE T="TIME=4.200000001000e+03"
0.000000000000e+00 4.897535209570e+06 
1.999999999994e+00 4.897558169521e+06 
3.999999999989e+00 4.897602365249e+06 
5.999999999983e+00 4.897631789755e+06 
7.999999999978e+00 4.897645559885e+06 
9.999999999972e+00 4.897643687793e+06 
1.199999999997e+01 4.897607810423e+06 
1.399999999996e+01 4.897554969625e+06 
1.599999999996e+01 4.897510121834e+06 
1.799999999995e+01 4.897463839936e+06 
1.999999999994e+01 4.897428535972e+06 
2.199999999994e+01 4.897418112010e+06 
2.399999999993e+01 4.897427940350e+06 
2.599999999993e+01 4.897432437493e+06 
2.799999999992e+01 4.897424914839e+06 
2.999999999992e+01 4.897404291854e+06 
3.199999999991e+01 4.897378435725e+06 
3.399999999992e+01 4.897356012521e+06 
3.599999999992e+01 4.897317310876e+06 
3.799999999993e+01 4.897263940985e+06 
3.999999999993e+01 4.897180282691e+06 
4.199999999994e+01 4.897048433694e+06 
4.399999999994e+01 4.897002653230e+06 
4.599999999995e+01 4.897035227948e+06 
4.799999999996e+01 4.897136011418e+06 
4.999999999996e+01 4.897181096337e+06 
5.199999999997e+01 4.897242298738e+06 
5.399999999997e+01 4.897303735382e+06 
5.599999999998e+01 4.897366047962e+06 
5.799999999998e+01 4.897418205415e+06 
5.999999999999e+01 4.897454654370e+06 
6.199999999999e+01 4.897490623391e+06 
6.400000000000e+01 4.897511824858e+06 
 ZONE T="TIME=4.500000001000e+03"
0.000000000000e+00 4.898972148717e+06 
1.999999999994e+00 4.898996217092e+06 
3.999999999989e+00 4.899042310358e+06 
5.999999999983e+00 4.899072776813e+06 
7.999999999978e+00 4.899086845737e+06 
9.999999999972e+00 4.899084581416e+06 
1.199999999997e+01 4.899047444759e+06 
1.399999999996e+01 4.898992335968e+06 
1.599999999996e+01 4.898945073508e+06 
1.799999999995e+01 4.898896301117e+06 
1.999999999994e+01 4.898859032450e+06 
2.199999999994e+01 4.898848119703e+06 
2.399999999993e+01 4.898858661602e+06 
2.599999999993e+01 4.898863689257e+06 
2.799999999992e+01 4.898856177685e+06 
2.999999999992e+01 4.898835216715e+06 
3.199999999991e+01 4.898808646678e+06 
3.399999999992e+01 4.898785669984e+06 
3.599999999992e+01 4.898745981778e+06 
3.799999999993e+01 4.898691102249e+06 
3.999999999993e+01 4.898605306040e+06 
4.199999999994e+01 4.898468121394e+06 
4.399999999994e+01 4.898419624939e+06 
4.599999999995e+01 4.898454256431e+06 
4.799999999996e+01 4.898560391542e+06 
4.999999999996e+01 4.898607973327e+06 
5.199999999997e+01 4.898672359723e+06 
5.399999999997e+01 4.898736835174e+06 
5.599999999998e+01 4.898801995680e+06 
5.799999999998e+01 4.898856423171e+06 
5.999999999999e+01 4.898894476584e+06 
6.199999999999e+01 4.898931637281e+06 
6.400000000000e+01 4.898953283386e+06 
 ZONE T="TIME=4.800000001000e+03"
0.000000000000e+00 4.900962691483e+06 
1.999999999994e+00 4.900988245494e+06 
3.999999999989e+00 4.901037122049e+06 
5.999999999983e+00 4.901069793736e+06 
7.999999999978e+00 4.901085935227e+06 
9.999999999972e+00 4.901091048380e+06 
1.199999999997e+01 4.901049615218e+06 
1.399999999996e+01 4.900982460682e+06 
1.599999999996e+01 4.900929364954e+06 
1.799999999995e+01 4.900875891744e+06 
1.999999999994e+01 4.900835181916e+06 
2.199999999994e+01 4.900822603858e+06 
2.399999999993e+01 4.900832606315e+06 
2.599999999993e+01 4.900836663133e+06 
2.799999999992e+01 4.900827643443e+06 
2.999999999992e+01 4.900804672478e+06 
3.199999999991e+01 4.900775857924e+06 
3.399999999992e+01 4.900750686637e+06 
3.599999999992e+01 4.900708260460e+06 
3.799999999993e+01 4.900650169668e+06 
3.999999999993e+01 4.900560415667e+06 
4.199999999994e+01 4.900415996706e+06 
4.399999999994e+01 4.900363965934e+06 
4.599999999995e+01 4.900400594284e+06 
4.799999999996e+01 4.900512214529e+06 
4.999999999996e+01 4.900562321450e+06 
5.199999999997e+01 4.900629987174e+06 
5.399999999997e+01 4.900697596074e+06 
5.599999999998e+01 4.900765687281e+06 
5.799999999998e+01 4.900822451376e+06 
5.999999999999e+01 4.900862164870e+06 
6.199999999999e+01 4.900900532531e+06 
6.400000000000e+01 4.900922613097e+06 
 ZONE T="TIME=5.100000001000e+03"
0.000000000000e+00 4.904006361996e+06 
1.999999999994e+00 4.904033944116e+06 
3.999999999989e+00 4.904086887219e+06 
5.999999999983e+00 4.904123357105e+06 
7.999999999978e+00 4.904150553571e+06 
9.999999999972e+00 4.904155346424e+06 
1.199999999997e+01 4.904100536701e+06 
1.399999999996e+01 4.904025610730e+06 
1.599999999996e+01 4.903966366531e+06 
1.799999999995e+01 4.903907723258e+06 
1.999999999994e+01 4.903863257010e+06 
2.199999999994e+01 4.903849188351e+06 
2.399999999993e+01 4.903859368176e+06 
2.599999999993e+01 4.903863485117e+06 
2.799999999992e+01 4.903854078637e+06 
2.999999999992e+01 4.903830450397e+06 
3.199999999991e+01 4.903800694510e+06 
3.399999999992e+01 4.903774868998e+06 
3.599999999992e+01 4.903731397333e+06 
3.799999999993e+01 4.903671753379e+06 
3.999999999993e+01 4.903579900289e+06 
4.199999999994e+01 4.903430109608e+06 
4.399999999994e+01 4.903375242248e+06 
4.599999999995e+01 4.903414338254e+06 
4.799999999996e+01 4.903532172122e+06 
4.999999999996e+01 4.903585462685e+06 
5.199999999997e+01 4.903657425587e+06 
5.399999999997e+01 4.903729458389e+06 
5.599999999998e+01 4.903801577854e+06 
5.799999999998e+01 4.903861261945e+06 
5.999999999999e+01 4.903902607223e+06 
6.199999999999e+01 4.903941869123e+06 
6.400000000000e+01 4.903964217309e+06 
 ZONE T="TIME=5.400000001000e+03"
0.000000000000e+00 4.908258352856e+06 
1.999999999994e+00 4.908287125473e+06 
3.999999999989e+00 4.908341953216e+06 
5.999999999983e+00 4.908379190801e+06 
7.999999999978e+00 4.908405592821e+06 
9.999999999972e+00 4.908408899476e+06 
1.199999999997e+01 4.908353951431e+06 
1.399999999996e+01 4.908277540855e+06 
1.599999999996e+01 4.908214962046e+06 
1.799999999995e+01 4.908151953083e+06 
1.999999999994e+01 4.908103458324e+06 
2.199999999994e+01 4.908086979256e+06 
2.399999999993e+01 4.908095806145e+06 
2.599999999993e+01 4.908098133422e+06 
2.799999999992e+01 4.908086461287e+06 
2.999999999992e+01 4.908060065528e+06 
3.199999999991e+01 4.908027443239e+06 
3.399999999992e+01 4.907998933051e+06 
3.599999999992e+01 4.907952293281e+06 
3.799999999993e+01 4.907889064794e+06 
3.999999999993e+01 4.907792967195e+06 
4.199999999994e+01 4.907635566715e+06 
4.399999999994e+01 4.907576803784e+06 
4.599999999995e+01 4.907617967595e+06 
4.799999999996e+01 4.907741316295e+06 
4.999999999996e+01 4.907797125272e+06 
5.199999999997e+01 4.907872341921e+06 
5.399999999997e+01 4.907947464354e+06 
5.599999999998e+01 4.908022444788e+06 
5.799999999998e+01 4.908084388744e+06 
5.999999999999e+01 4.908127383908e+06 
6.199999999999e+01 4.908167839340e+06 
6.400000000000e+01 4.908190601622e+06 
 ZONE T="TIME=5.700000001000e+03"
0.000000000000e+00 4.913208654540e+06 
1.999999999994e+00 4.913237774186e+06 
3.999999999989e+00 4.913292369200e+06 
5.999999999983e+00 4.913327881596e+06 
7.999999999978e+00 4.913350884447e+06 
9.999999999972e+00 4.913349970312e+06 
1.199999999997e+01 4.913292076073e+06 
1.399999999996e+01 4.913211606512e+06 
1.599999999996e+01 4.913143668020e+06 
1.799999999995e+01 4.913074650979e+06 
1.999999999994e+01 4.913021137648e+06 
2.199999999994e+01 4.913002067316e+06 
2.399999999993e+01 4.913010017313e+06 
2.599999999993e+01 4.913011306321e+06 
2.799999999992e+01 4.912998205869e+06 
2.999999999992e+01 4.912970076398e+06 
3.199999999991e+01 4.912935335007e+06 
3.399999999992e+01 4.912904649251e+06 
3.599999999992e+01 4.912855203631e+06 
3.799999999993e+01 4.912788577543e+06 
3.999999999993e+01 4.912688370752e+06 
4.199999999994e+01 4.912523306055e+06 
4.399999999994e+01 4.912460574398e+06 
4.599999999995e+01 4.912504348249e+06 
4.799999999996e+01 4.912634515678e+06 
4.999999999996e+01 4.912693701224e+06 
5.199999999997e+01 4.912773094205e+06 
5.399999999997e+01 4.912852111160e+06 
5.599999999998e+01 4.912930634284e+06 
5.799999999998e+01 4.912995451820e+06 
5.999999999999e+01 4.913040524840e+06 
6.199999999999e+01 4.913082322785e+06 
6.400000000000e+01 4.913105492084e+06 
 ZONE T="TIME=6.000000001000e+03"
0.000000000000e+00 4.921835667825e+06 
1.999999999994e+00 4.921865514035e+06 
3.999999999989e+00 4.921920758898e+06 
5.999999999983e+00 4.921955533662e+06 
7.999999999978e+00 4.921976199784e+06 
9.999999999972e+00 4.921972265887e+06 
1.199999999997e+01 4.921912549257e+06 
1.399999999996e+01 4.921829134352e+06 
1.599999999996e+01 4.921756971622e+06 
1.799999999995e+01 4.921683125283e+06 
1.999999999994e+01 4.921625394330e+06 
2.199999999994e+01 4.921603946273e+06 
2.399999999993e+01 4.921610623641e+06 
2.599999999993e+01 4.921610045038e+06 
2.799999999992e+01 4.921594445669e+06 
2.999999999992e+01 4.921563234162e+06 
3.199999999991e+01 4.921525224924e+06 
3.399999999992e+01 4.921491391047e+06 
3.599999999992e+01 4.921438306862e+06 
3.799999999993e+01 4.921367620261e+06 
3.999999999993e+01 4.921262725479e+06 
4.199999999994e+01 4.921089399038e+06 
4.399999999994e+01 4.921022234049e+06 
4.599999999995e+01 4.921068221127e+06 
4.799999999996e+01 4.921204078254e+06 
4.999999999996e+01 4.921265897807e+06 
5.199999999997e+01 4.921348927544e+06 
5.399999999997e+01 4.921431809244e+06 
5.599999999998e+01 4.921514261246e+06 
5.799999999998e+01 4.921582563728e+06 
5.999999999999e+01 4.921630158727e+06 
6.199999999999e+01 4.921673451779e+06 
6.400000000000e+01 4.921696997290e+06 
 ZONE T="TIME=6.300000001000e+03"