 TITLE = "Time curves in points"
 VARIABLES = "TIME "  "PRESSURE1" 
 ZONE T="POINT=POINTL4_MID"
0.000000000000e+00 0.000000000000e+00 
1.000000000000e-06 4.890106711373e+06 
3.000000010000e+02 4.890106711373e+06 
6.000000010000e+02 4.890106711373e+06 
9.000000010000e+02 4.890106711373e+06 
1.200000001000e+03 4.890106711373e+06 
1.500000001000e+03 4.890106711373e+06 
1.800000001000e+03 4.890106711373e+06 
2.100000001000e+03 4.890106711373e+06 
2.400000001000e+03 4.890105965025e+06 
2.700000001000e+03 4.890105387897e+06 
3.000000001000e+03 4.890104185325e+06 
3.300000001000e+03 4.890103405772e+06 
3.600000001000e+03 4.890099915132e+06 
3.900000001000e+03 4.890100117920e+06 
4.200000001000e+03 4.890106711373e+06 
4.500000001000e+03 4.890104184002e+06 
4.800000001000e+03 4.890080162919e+06 
5.100000001000e+03 4.890078947573e+06 
5.400000001000e+03 4.890034385237e+06 
5.700000001000e+03 4.890029030457e+06 
6.000000001000e+03 4.890034322707e+06 
6.300000001000e+03 4.890105855217e+06 
6.600000001000e+03 4.890100381560e+06 
6.900000001000e+03 4.890079521765e+06 
7.200000001000e+03 4.890029685681e+06 
7.500000001000e+03 4.890045782137e+06 
7.800000001000e+03 4.890076069555e+06 
8.100000001000e+03 4.890000111719e+06 
8.400000001000e+03 4.890105855217e+06 
8.700000001000e+03 4.890080162921e+06 
9.000000001000e+03 4.890034386509e+06 
9.300000001000e+03 4.890032779101e+06 
9.600000001000e+03 4.890076340248e+06 
9.900000001000e+03 4.890000112338e+06 
1.020000000100e+04 4.890111764423e+06 
1.050000000100e+04 4.890106711373e+06 
1.080000000100e+04 4.890100381560e+06 
1.110000000100e+04 4.890079521765e+06 
1.140000000100e+04 4.890029685681e+06 
1.170000000100e+04 4.890045782137e+06 
1.200000000100e+04 4.890076069555e+06 
1.230000000100e+04 4.890000111719e+06 
1.260000000100e+04 4.890105855217e+06 
1.290000000100e+04 4.890104184002e+06 
1.320000000100e+04 4.890080162919e+06 
1.350000000100e+04 4.890078947573e+06 
1.380000000100e+04 4.890034385237e+06 
1.410000000100e+04 4.890029030457e+06 
1.440000000100e+04 4.890034322707e+06 
1.470000000100e+04 4.890105855217e+06 
1.500000000100e+04 4.890105965025e+06 
1.530000000100e+04 4.890105387897e+06 
1.560000000100e+04 4.890104185325e+06 
1.590000000100e+04 4.890103405772e+06 
1.620000000100e+04 4.890099915132e+06 
1.650000000100e+04 4.890100117920e+06 
1.680000000100e+04 4.890106711373e+06 
1.710000000100e+04 4.890106711373e+06 
1.740000000100e+04 4.890106711373e+06 
1.770000000100e+04 4.890106711373e+06 
1.800000000100e+04 4.890106711373e+06 
1.830000000100e+04 4.890106711373e+06 
1.860000000100e+04 4.890106711373e+06 
