 TITLE = "Time curves in points"
 VARIABLES = "TIME "  "PRESSURE1" 
 ZONE T="POINT=POINTL2_MID"
0.000000000000e+00 0.000000000000e+00 
1.000000000000e-06 4.897293236253e+06 
3.000000010000e+02 4.897293236235e+06 
6.000000010000e+02 4.897293236235e+06 
9.000000010000e+02 4.897293236235e+06 
1.200000001000e+03 4.897293236235e+06 
1.500000001000e+03 4.897293236235e+06 
1.800000001000e+03 4.897293236235e+06 
2.100000001000e+03 4.897293236235e+06 
2.400000001000e+03 4.897654839519e+06 
2.700000001000e+03 4.898012302758e+06 
3.000000001000e+03 4.898416421073e+06 
3.300000001000e+03 4.898845569357e+06 
3.600000001000e+03 4.899268341252e+06 
3.900000001000e+03 4.899744969207e+06 
4.200000001000e+03 4.897293236224e+06 
4.500000001000e+03 4.898585957450e+06 
4.800000001000e+03 4.900145302306e+06 
5.100000001000e+03 4.901952837966e+06 
5.400000001000e+03 4.903992983731e+06 
5.700000001000e+03 4.906230898146e+06 
6.000000001000e+03 4.908608657675e+06 
6.300000001000e+03 4.897293236197e+06 
6.600000001000e+03 4.899647324275e+06 
6.900000001000e+03 4.902781989321e+06 
7.200000001000e+03 4.906514433178e+06 
7.500000001000e+03 4.910554082050e+06 
7.800000001000e+03 4.914519900862e+06 
8.100000001000e+03 4.917743357661e+06 
8.400000001000e+03 4.897293236174e+06 
8.700000001000e+03 4.900145303126e+06 
9.000000001000e+03 4.903992445874e+06 
9.300000001000e+03 4.908609054712e+06 
9.600000001000e+03 4.913198150377e+06 
9.900000001000e+03 4.917357213668e+06 
1.020000000100e+04 4.920798971337e+06 
1.050000000100e+04 4.897293236173e+06 
1.080000000100e+04 4.899647324276e+06 
1.110000000100e+04 4.902781989321e+06 
1.140000000100e+04 4.906514433178e+06 
1.170000000100e+04 4.910554082050e+06 
1.200000000100e+04 4.914519900861e+06 
1.230000000100e+04 4.917743357661e+06 
1.260000000100e+04 4.897293236174e+06 
1.290000000100e+04 4.898585957450e+06 
1.320000000100e+04 4.900145302306e+06 
1.350000000100e+04 4.901952837967e+06 
1.380000000100e+04 4.903992983731e+06 
1.410000000100e+04 4.906230898146e+06 
1.440000000100e+04 4.908608657674e+06 
1.470000000100e+04 4.897293236197e+06 
1.500000000100e+04 4.897654839519e+06 
1.530000000100e+04 4.898012302758e+06 
1.560000000100e+04 4.898416421073e+06 
1.590000000100e+04 4.898845569358e+06 
1.620000000100e+04 4.899268341253e+06 
1.650000000100e+04 4.899744969207e+06 
1.680000000100e+04 4.897293236224e+06 
1.710000000100e+04 4.897293236235e+06 
1.740000000100e+04 4.897293236235e+06 
1.770000000100e+04 4.897293236235e+06 
1.800000000100e+04 4.897293236235e+06 
1.830000000100e+04 4.897293236235e+06 
1.860000000100e+04 4.897293236235e+06 
