 TITLE = "Time curves in points"
 VARIABLES = "TIME "  "PRESSURE1" 
 ZONE T="POINT=POINTL2_MID"
0.000000000000e+00 0.000000000000e+00 
1.000000000000e-06 4.897378435756e+06 
3.000000010000e+02 4.897378435736e+06 
6.000000010000e+02 4.897378435736e+06 
9.000000010000e+02 4.897378435737e+06 
1.200000001000e+03 4.897378435736e+06 
1.500000001000e+03 4.897378435736e+06 
1.800000001000e+03 4.897378435737e+06 
2.100000001000e+03 4.897378435737e+06 
2.400000001000e+03 4.897749776288e+06 
2.700000001000e+03 4.898139622408e+06 
3.000000001000e+03 4.898589806080e+06 
3.300000001000e+03 4.899081803952e+06 
3.600000001000e+03 4.899559172699e+06 
3.900000001000e+03 4.900196114717e+06 
4.200000001000e+03 4.897378435725e+06 
4.500000001000e+03 4.898808646678e+06 
4.800000001000e+03 4.900775857924e+06 
5.100000001000e+03 4.903800694510e+06 
5.400000001000e+03 4.908027443239e+06 
5.700000001000e+03 4.912935335007e+06 
6.000000001000e+03 4.921525224924e+06 
6.300000001000e+03 4.897358477397e+06 
6.600000001000e+03 4.900087024560e+06 
6.900000001000e+03 4.905164054126e+06 
7.200000001000e+03 4.913456717847e+06 
7.500000001000e+03 4.929768224041e+06 
7.800000001000e+03 4.963888297779e+06 
8.100000001000e+03 5.020538899478e+06 
8.400000001000e+03 4.897358477545e+06 
8.700000001000e+03 4.900775875534e+06 
9.000000001000e+03 4.908027172294e+06 
9.300000001000e+03 4.920805297162e+06 
9.600000001000e+03 4.954400478130e+06 
9.900000001000e+03 5.015547706499e+06 
1.020000000100e+04 4.895213799994e+06 
1.050000000100e+04 4.897378436253e+06 
1.080000000100e+04 4.900087024639e+06 
1.110000000100e+04 4.905164054126e+06 
1.140000000100e+04 4.913456717847e+06 
1.170000000100e+04 4.929768224042e+06 
1.200000000100e+04 4.963888297782e+06 
1.230000000100e+04 5.020538899482e+06 
1.260000000100e+04 4.897358477545e+06 
1.290000000100e+04 4.898808646654e+06 
1.320000000100e+04 4.900775857924e+06 
1.350000000100e+04 4.903800694510e+06 
1.380000000100e+04 4.908027443239e+06 
1.410000000100e+04 4.912935335008e+06 
1.440000000100e+04 4.921525224922e+06 
1.470000000100e+04 4.897358477397e+06 
1.500000000100e+04 4.897749776283e+06 
1.530000000100e+04 4.898139622408e+06 
1.560000000100e+04 4.898589806081e+06 
1.590000000100e+04 4.899081803951e+06 
1.620000000100e+04 4.899559172698e+06 
1.650000000100e+04 4.900196114717e+06 
1.680000000100e+04 4.897378435725e+06 
1.710000000100e+04 4.897378435736e+06 
1.740000000100e+04 4.897378435736e+06 
1.770000000100e+04 4.897378435737e+06 
1.800000000100e+04 4.897378435736e+06 
1.830000000100e+04 4.897378435736e+06 
1.860000000100e+04 4.897378435736e+06 
