VARIABLES = "X","Y","Z",VELOCITY_X1,VELOCITY_Y1
ZONE T="0.000000000000e+00s", 
3.957670000000e+01 3.122180000000e+01 0.000000000000e+00 0.000000000000e+00 0.000000000000e+00 0.000000000000e+00
3.957670000000e+01 3.022180000000e+01 0.000000000000e+00 0.000000000000e+00 0.000000000000e+00 0.000000000000e+00
3.957670000000e+01 2.922179999999e+01 0.000000000000e+00 0.000000000000e+00 0.000000000000e+00 0.000000000000e+00
3.957670000000e+01 2.822179999999e+01 0.000000000000e+00 0.000000000000e+00 0.000000000000e+00 0.000000000000e+00
3.957670000000e+01 2.722179999999e+01 0.000000000000e+00 0.000000000000e+00 0.000000000000e+00 0.000000000000e+00
3.957670000000e+01 2.622179999999e+01 0.000000000000e+00 0.000000000000e+00 0.000000000000e+00 0.000000000000e+00
3.957670000000e+01 2.522179999998e+01 0.000000000000e+00 0.000000000000e+00 0.000000000000e+00 0.000000000000e+00
3.957670000000e+01 2.422179999998e+01 0.000000000000e+00 0.000000000000e+00 0.000000000000e+00 0.000000000000e+00
3.957670000000e+01 2.322179999998e+01 0.000000000000e+00 0.000000000000e+00 0.000000000000e+00 0.000000000000e+00
3.957670000000e+01 2.222179999998e+01 0.000000000000e+00 0.000000000000e+00 0.000000000000e+00 0.000000000000e+00
3.957670000000e+01 2.122179999997e+01 0.000000000000e+00 0.000000000000e+00 0.000000000000e+00 0.000000000000e+00
3.957670000000e+01 2.022179999997e+01 0.000000000000e+00 0.000000000000e+00 0.000000000000e+00 0.000000000000e+00
3.957670000000e+01 1.922179999997e+01 0.000000000000e+00 0.000000000000e+00 0.000000000000e+00 0.000000000000e+00
3.957670000000e+01 1.822179999997e+01 0.000000000000e+00 0.000000000000e+00 0.000000000000e+00 0.000000000000e+00
3.957670000000e+01 1.722179999996e+01 0.000000000000e+00 0.000000000000e+00 0.000000000000e+00 0.000000000000e+00
3.957670000000e+01 1.622179999996e+01 0.000000000000e+00 0.000000000000e+00 0.000000000000e+00 0.000000000000e+00
3.957670000000e+01 1.522179999996e+01 0.000000000000e+00 0.000000000000e+00 0.000000000000e+00 0.000000000000e+00
3.957670000000e+01 1.422179999995e+01 0.000000000000e+00 0.000000000000e+00 0.000000000000e+00 0.000000000000e+00
3.957670000000e+01 1.322179999995e+01 0.000000000000e+00 0.000000000000e+00 0.000000000000e+00 0.000000000000e+00
3.957670000000e+01 1.222179999995e+01 0.000000000000e+00 0.000000000000e+00 0.000000000000e+00 0.000000000000e+00
3.957670000000e+01 1.122179999995e+01 0.000000000000e+00 0.000000000000e+00 0.000000000000e+00 0.000000000000e+00
3.957670000000e+01 1.022179999994e+01 0.000000000000e+00 0.000000000000e+00 0.000000000000e+00 0.000000000000e+00
3.957670000000e+01 9.221799999941e+00 0.000000000000e+00 0.000000000000e+00 0.000000000000e+00 0.000000000000e+00
3.957670000000e+01 8.221799999939e+00 0.000000000000e+00 0.000000000000e+00 0.000000000000e+00 0.000000000000e+00
3.957670000000e+01 7.221799999936e+00 0.000000000000e+00 0.000000000000e+00 0.000000000000e+00 0.000000000000e+00
3.957670000000e+01 6.221799999933e+00 0.000000000000e+00 0.000000000000e+00 0.000000000000e+00 0.000000000000e+00
3.957670000000e+01 5.221799999931e+00 0.000000000000e+00 0.000000000000e+00 0.000000000000e+00 0.000000000000e+00
3.957670000000e+01 4.221799999928e+00 0.000000000000e+00 0.000000000000e+00 0.000000000000e+00 0.000000000000e+00
3.957670000000e+01 3.221799999925e+00 0.000000000000e+00 0.000000000000e+00 0.000000000000e+00 0.000000000000e+00
3.957670000000e+01 2.221799999923e+00 0.000000000000e+00 0.000000000000e+00 0.000000000000e+00 0.000000000000e+00
3.957670000000e+01 1.221799999920e+00 0.000000000000e+00 0.000000000000e+00 0.000000000000e+00 0.000000000000e+00
3.957670000000e+01 2.217999999173e-01 0.000000000000e+00 0.000000000000e+00 0.000000000000e+00 0.000000000000e+00
3.957670000000e+01 -7.782000000847e-01 0.000000000000e+00 0.000000000000e+00 0.000000000000e+00 0.000000000000e+00
3.957670000000e+01 -1.778200000083e+00 0.000000000000e+00 0.000000000000e+00 0.000000000000e+00 0.000000000000e+00
3.957670000000e+01 -2.778200000080e+00 0.000000000000e+00 0.000000000000e+00 0.000000000000e+00 0.000000000000e+00
3.957670000000e+01 -3.778200000077e+00 0.000000000000e+00 0.000000000000e+00 0.000000000000e+00 0.000000000000e+00
3.957670000000e+01 -4.778200000074e+00 0.000000000000e+00 0.000000000000e+00 0.000000000000e+00 0.000000000000e+00
3.957670000000e+01 -5.778200000071e+00 0.000000000000e+00 0.000000000000e+00 0.000000000000e+00 0.000000000000e+00
3.957670000000e+01 -6.778200000069e+00 0.000000000000e+00 0.000000000000e+00 0.000000000000e+00 0.000000000000e+00
3.957670000000e+01 -7.778200000066e+00 0.000000000000e+00 0.000000000000e+00 0.000000000000e+00 0.000000000000e+00
3.957670000000e+01 -8.778200000063e+00 0.000000000000e+00 0.000000000000e+00 0.000000000000e+00 0.000000000000e+00
3.957670000000e+01 -9.778200000060e+00 0.000000000000e+00 0.000000000000e+00 0.000000000000e+00 0.000000000000e+00
3.957670000000e+01 -1.077820000006e+01 0.000000000000e+00 0.000000000000e+00 0.000000000000e+00 0.000000000000e+00
3.957670000000e+01 -1.177820000005e+01 0.000000000000e+00 0.000000000000e+00 0.000000000000e+00 0.000000000000e+00
3.957670000000e+01 -1.277820000005e+01 0.000000000000e+00 0.000000000000e+00 0.000000000000e+00 0.000000000000e+00
3.957670000000e+01 -1.377820000005e+01 0.000000000000e+00 0.000000000000e+00 0.000000000000e+00 0.000000000000e+00
3.957670000000e+01 -1.477820000005e+01 0.000000000000e+00 0.000000000000e+00 0.000000000000e+00 0.000000000000e+00
3.957670000000e+01 -1.577820000004e+01 0.000000000000e+00 0.000000000000e+00 0.000000000000e+00 0.000000000000e+00
3.957670000000e+01 -1.677820000004e+01 0.000000000000e+00 0.000000000000e+00 0.000000000000e+00 0.000000000000e+00
3.957670000000e+01 -1.777820000004e+01 0.000000000000e+00 0.000000000000e+00 0.000000000000e+00 0.000000000000e+00
3.957670000000e+01 -1.877820000004e+01 0.000000000000e+00 0.000000000000e+00 0.000000000000e+00 0.000000000000e+00
3.957670000000e+01 -1.977820000003e+01 0.000000000000e+00 0.000000000000e+00 0.000000000000e+00 0.000000000000e+00
3.957670000000e+01 -2.077820000003e+01 0.000000000000e+00 0.000000000000e+00 0.000000000000e+00 0.000000000000e+00
3.957670000000e+01 -2.177820000003e+01 0.000000000000e+00 0.000000000000e+00 0.000000000000e+00 0.000000000000e+00
3.957670000000e+01 -2.277820000002e+01 0.000000000000e+00 0.000000000000e+00 0.000000000000e+00 0.000000000000e+00
3.957670000000e+01 -2.377820000002e+01 0.000000000000e+00 0.000000000000e+00 0.000000000000e+00 0.000000000000e+00
3.957670000000e+01 -2.477820000002e+01 0.000000000000e+00 0.000000000000e+00 0.000000000000e+00 0.000000000000e+00
3.957670000000e+01 -2.577820000002e+01 0.000000000000e+00 0.000000000000e+00 0.000000000000e+00 0.000000000000e+00
3.957670000000e+01 -2.677820000001e+01 0.000000000000e+00 0.000000000000e+00 0.000000000000e+00 0.000000000000e+00
3.957670000000e+01 -2.777820000001e+01 0.000000000000e+00 0.000000000000e+00 0.000000000000e+00 0.000000000000e+00
3.957670000000e+01 -2.877820000001e+01 0.000000000000e+00 0.000000000000e+00 0.000000000000e+00 0.000000000000e+00
3.957670000000e+01 -2.977820000000e+01 0.000000000000e+00 0.000000000000e+00 0.000000000000e+00 0.000000000000e+00
3.957670000000e+01 -3.077820000000e+01 0.000000000000e+00 0.000000000000e+00 0.000000000000e+00 0.000000000000e+00
3.957670000000e+01 -3.177820000000e+01 0.000000000000e+00 0.000000000000e+00 0.000000000000e+00 0.000000000000e+00
4.057670000000e+01 -3.277820000000e+01 0.000000000000e+00 0.000000000000e+00 0.000000000000e+00 0.000000000000e+00
4.057670000000e+01 -3.177820000000e+01 0.000000000000e+00 0.000000000000e+00 0.000000000000e+00 0.000000000000e+00
4.057670000000e+01 -3.077820000000e+01 0.000000000000e+00 0.000000000000e+00 0.000000000000e+00 0.000000000000e+00
4.057670000000e+01 -2.977820000000e+01 0.000000000000e+00 0.000000000000e+00 0.000000000000e+00 0.000000000000e+00
4.057670000000e+01 -2.877820000000e+01 0.000000000000e+00 0.000000000000e+00 0.000000000000e+00 0.000000000000e+00
4.057670000000e+01 -2.777820000001e+01 0.000000000000e+00 0.000000000000e+00 0.000000000000e+00 0.000000000000e+00
4.057670000000e+01 -2.677820000001e+01 0.000000000000e+00 0.000000000000e+00 0.000000000000e+00 0.000000000000e+00
4.057670000000e+01 -2.577820000001e+01 0.000000000000e+00 0.000000000000e+00 0.000000000000e+00 0.000000000000e+00
4.057670000000e+01 -2.477820000001e+01 0.000000000000e+00 0.000000000000e+00 0.000000000000e+00 0.000000000000e+00
4.057670000000e+01 -2.377820000002e+01 0.000000000000e+00 0.000000000000e+00 0.000000000000e+00 0.000000000000e+00
4.057670000000e+01 -2.277820000002e+01 0.000000000000e+00 0.000000000000e+00 0.000000000000e+00 0.000000000000e+00
4.057670000000e+01 -2.177820000002e+01 0.000000000000e+00 0.000000000000e+00 0.000000000000e+00 0.000000000000e+00
4.057670000000e+01 -2.077820000002e+01 0.000000000000e+00 0.000000000000e+00 0.000000000000e+00 0.000000000000e+00
4.057670000000e+01 -1.977820000002e+01 0.000000000000e+00 0.000000000000e+00 0.000000000000e+00 0.000000000000e+00
4.057670000000e+01 -1.877820000003e+01 0.000000000000e+00 0.000000000000e+00 0.000000000000e+00 0.000000000000e+00
4.057670000000e+01 -1.777820000003e+01 0.000000000000e+00 0.000000000000e+00 0.000000000000e+00 0.000000000000e+00
4.057670000000e+01 -1.677820000003e+01 0.000000000000e+00 0.000000000000e+00 0.000000000000e+00 0.000000000000e+00
4.057670000000e+01 -1.577820000003e+01 0.000000000000e+00 0.000000000000e+00 0.000000000000e+00 0.000000000000e+00
4.057670000000e+01 -1.477820000003e+01 0.000000000000e+00 0.000000000000e+00 0.000000000000e+00 0.000000000000e+00
4.057670000000e+01 -1.377820000004e+01 0.000000000000e+00 0.000000000000e+00 0.000000000000e+00 0.000000000000e+00
4.057670000000e+01 -1.277820000004e+01 0.000000000000e+00 0.000000000000e+00 0.000000000000e+00 0.000000000000e+00
4.057670000000e+01 -1.177820000004e+01 0.000000000000e+00 0.000000000000e+00 0.000000000000e+00 0.000000000000e+00
4.057670000000e+01 -1.077820000004e+01 0.000000000000e+00 0.000000000000e+00 0.000000000000e+00 0.000000000000e+00
4.057670000000e+01 -9.778200000046e+00 0.000000000000e+00 0.000000000000e+00 0.000000000000e+00 0.000000000000e+00
4.057670000000e+01 -8.778200000048e+00 0.000000000000e+00 0.000000000000e+00 0.000000000000e+00 0.000000000000e+00
4.057670000000e+01 -7.778200000050e+00 0.000000000000e+00 0.000000000000e+00 0.000000000000e+00 0.000000000000e+00
4.057670000000e+01 -6.778200000052e+00 0.000000000000e+00 0.000000000000e+00 0.000000000000e+00 0.000000000000e+00
4.057670000000e+01 -5.778200000054e+00 0.000000000000e+00 0.000000000000e+00 0.000000000000e+00 0.000000000000e+00
4.057670000000e+01 -4.778200000056e+00 0.000000000000e+00 0.000000000000e+00 0.000000000000e+00 0.000000000000e+00
4.057670000000e+01 -3.778200000058e+00 0.000000000000e+00 0.000000000000e+00 0.000000000000e+00 0.000000000000e+00
4.057670000000e+01 -2.778200000061e+00 0.000000000000e+00 0.000000000000e+00 0.000000000000e+00 0.000000000000e+00
4.057670000000e+01 -1.778200000063e+00 0.000000000000e+00 0.000000000000e+00 0.000000000000e+00 0.000000000000e+00
4.057670000000e+01 -7.782000000643e-01 0.000000000000e+00 0.000000000000e+00 0.000000000000e+00 0.000000000000e+00
4.057670000000e+01 2.217999999372e-01 0.000000000000e+00 0.000000000000e+00 0.000000000000e+00 0.000000000000e+00
4.057670000000e+01 1.221799999939e+00 0.000000000000e+00 0.000000000000e+00 0.000000000000e+00 0.000000000000e+00
4.057670000000e+01 2.221799999941e+00 0.000000000000e+00 0.000000000000e+00 0.000000000000e+00 0.000000000000e+00
4.057670000000e+01 3.221799999943e+00 0.000000000000e+00 0.000000000000e+00 0.000000000000e+00 0.000000000000e+00
4.057670000000e+01 4.221799999945e+00 0.000000000000e+00 0.000000000000e+00 0.000000000000e+00 0.000000000000e+00
4.057670000000e+01 5.221799999947e+00 0.000000000000e+00 0.000000000000e+00 0.000000000000e+00 0.000000000000e+00
4.057670000000e+01 6.221799999949e+00 0.000000000000e+00 0.000000000000e+00 0.000000000000e+00 0.000000000000e+00
4.057670000000e+01 7.221799999951e+00 0.000000000000e+00 0.000000000000e+00 0.000000000000e+00 0.000000000000e+00
4.057670000000e+01 8.221799999953e+00 0.000000000000e+00 0.000000000000e+00 0.000000000000e+00 0.000000000000e+00
4.057670000000e+01 9.221799999955e+00 0.000000000000e+00 0.000000000000e+00 0.000000000000e+00 0.000000000000e+00
4.057670000000e+01 1.022179999996e+01 0.000000000000e+00 0.000000000000e+00 0.000000000000e+00 0.000000000000e+00
4.057670000000e+01 1.122179999996e+01 0.000000000000e+00 0.000000000000e+00 0.000000000000e+00 0.000000000000e+00
4.057670000000e+01 1.222179999996e+01 0.000000000000e+00 0.000000000000e+00 0.000000000000e+00 0.000000000000e+00
4.057670000000e+01 1.322179999996e+01 0.000000000000e+00 0.000000000000e+00 0.000000000000e+00 0.000000000000e+00
4.057670000000e+01 1.422179999997e+01 0.000000000000e+00 0.000000000000e+00 0.000000000000e+00 0.000000000000e+00
4.057670000000e+01 1.522179999997e+01 0.000000000000e+00 0.000000000000e+00 0.000000000000e+00 0.000000000000e+00
4.057670000000e+01 1.622179999997e+01 0.000000000000e+00 0.000000000000e+00 0.000000000000e+00 0.000000000000e+00
4.057670000000e+01 1.722179999997e+01 0.000000000000e+00 0.000000000000e+00 0.000000000000e+00 0.000000000000e+00
4.057670000000e+01 1.822179999997e+01 0.000000000000e+00 0.000000000000e+00 0.000000000000e+00 0.000000000000e+00
4.057670000000e+01 1.922179999998e+01 0.000000000000e+00 0.000000000000e+00 0.000000000000e+00 0.000000000000e+00
4.057670000000e+01 2.022179999998e+01 0.000000000000e+00 0.000000000000e+00 0.000000000000e+00 0.000000000000e+00
4.057670000000e+01 2.122179999998e+01 0.000000000000e+00 0.000000000000e+00 0.000000000000e+00 0.000000000000e+00
4.057670000000e+01 2.222179999998e+01 0.000000000000e+00 0.000000000000e+00 0.000000000000e+00 0.000000000000e+00
4.057670000000e+01 2.322179999998e+01 0.000000000000e+00 0.000000000000e+00 0.000000000000e+00 0.000000000000e+00
4.057670000000e+01 2.422179999999e+01 0.000000000000e+00 0.000000000000e+00 0.000000000000e+00 0.000000000000e+00
4.057670000000e+01 2.522179999999e+01 0.000000000000e+00 0.000000000000e+00 0.000000000000e+00 0.000000000000e+00
4.057670000000e+01 2.622179999999e+01 0.000000000000e+00 0.000000000000e+00 0.000000000000e+00 0.000000000000e+00
4.057670000000e+01 2.722179999999e+01 0.000000000000e+00 0.000000000000e+00 0.000000000000e+00 0.000000000000e+00
4.057670000000e+01 2.822179999999e+01 0.000000000000e+00 0.000000000000e+00 0.000000000000e+00 0.000000000000e+00
4.057670000000e+01 2.922180000000e+01 0.000000000000e+00 0.000000000000e+00 0.000000000000e+00 0.000000000000e+00
4.057670000000e+01 3.022180000000e+01 0.000000000000e+00 0.000000000000e+00 0.000000000000e+00 0.000000000000e+00
VARIABLES = "X","Y","Z",VELOCITY_X1,VELOCITY_Y1
ZONE T="1.000000000000e-06s", 
3.957670000000e+01 3.122180000000e+01 0.000000000000e+00 5.863768692517e-06 1.644272206045e-06 0.000000000000e+00
3.957670000000e+01 3.022180000000e+01 0.000000000000e+00 4.415006155086e-06 1.909814283114e-06 0.000000000000e+00
3.957670000000e+01 2.922179999999e+01 0.000000000000e+00 3.388456130478e-06 7.719861179659e-07 0.000000000000e+00
3.957670000000e+01 2.822179999999e+01 0.000000000000e+00 5.206820176926e-06 -3.456470454101e-07 0.000000000000e+00
3.957670000000e+01 2.722179999999e+01 0.000000000000e+00 8.731120663166e-06 9.005930647383e-07 0.000000000000e+00
3.957670000000e+01 2.622179999999e+01 0.000000000000e+00 1.036543548538e-06 4.311337206310e-07 0.000000000000e+00
3.957670000000e+01 2.522179999998e+01 0.000000000000e+00 4.077357326994e-06 -2.156574072492e-07 0.000000000000e+00
3.957670000000e+01 2.422179999998e+01 0.000000000000e+00 2.094707110066e-06 -5.284119771365e-07 0.000000000000e+00
3.957670000000e+01 2.322179999998e+01 0.000000000000e+00 8.251352417927e-06 -8.788869370373e-07 0.000000000000e+00
3.957670000000e+01 2.222179999998e+01 0.000000000000e+00 1.328728957642e-05 -3.199017857546e-06 0.000000000000e+00
3.957670000000e+01 2.122179999997e+01 0.000000000000e+00 8.359318756282e-06 2.035138071056e-06 0.000000000000e+00
3.957670000000e+01 2.022179999997e+01 0.000000000000e+00 4.073637820087e-06 7.515813365059e-06 0.000000000000e+00
3.957670000000e+01 1.922179999997e+01 0.000000000000e+00 7.604143521346e-06 1.354757991755e-06 0.000000000000e+00
3.957670000000e+01 1.822179999997e+01 0.000000000000e+00 1.147988114672e-05 2.082485053058e-07 0.000000000000e+00
3.957670000000e+01 1.722179999996e+01 0.000000000000e+00 8.856087699088e-06 -1.887009738464e-06 0.000000000000e+00
3.957670000000e+01 1.622179999996e+01 0.000000000000e+00 1.152972429410e-05 -2.960637686390e-06 0.000000000000e+00
3.957670000000e+01 1.522179999996e+01 0.000000000000e+00 1.188787849616e-05 -1.448028512248e-06 0.000000000000e+00
3.957670000000e+01 1.422179999995e+01 0.000000000000e+00 8.591280866697e-06 6.009336417728e-06 0.000000000000e+00
3.957670000000e+01 1.322179999995e+01 0.000000000000e+00 6.123578277750e-06 1.432613592861e-06 0.000000000000e+00
3.957670000000e+01 1.222179999995e+01 0.000000000000e+00 1.202182579906e-05 -3.151139923633e-06 0.000000000000e+00
3.957670000000e+01 1.122179999995e+01 0.000000000000e+00 2.238652691835e-06 1.425599476895e-06 0.000000000000e+00
3.957670000000e+01 1.022179999994e+01 0.000000000000e+00 5.204447097000e-06 -7.027706551575e-07 0.000000000000e+00
3.957670000000e+01 9.221799999941e+00 0.000000000000e+00 1.958807075548e-05 6.079887114299e-06 0.000000000000e+00
3.957670000000e+01 8.221799999939e+00 0.000000000000e+00 4.751798286564e-06 5.118254746360e-07 0.000000000000e+00
3.957670000000e+01 7.221799999936e+00 0.000000000000e+00 1.739094201049e-05 -6.381517076889e-06 0.000000000000e+00
3.957670000000e+01 6.221799999933e+00 0.000000000000e+00 1.827064790280e-05 -8.151971782107e-06 0.000000000000e+00
3.957670000000e+01 5.221799999931e+00 0.000000000000e+00 1.309525542362e-05 -3.891067950156e-07 0.000000000000e+00
3.957670000000e+01 4.221799999928e+00 0.000000000000e+00 1.296021524741e-05 -4.335060233341e-06 0.000000000000e+00
3.957670000000e+01 3.221799999925e+00 0.000000000000e+00 1.431193706925e-05 -2.051861254159e-06 0.000000000000e+00
3.957670000000e+01 2.221799999923e+00 0.000000000000e+00 7.647476261581e-06 2.583191740161e-06 0.000000000000e+00
3.957670000000e+01 1.221799999920e+00 0.000000000000e+00 6.736309044944e-06 3.712318426046e-06 0.000000000000e+00
3.957670000000e+01 2.217999999173e-01 0.000000000000e+00 6.255904546479e-06 2.996775383084e-06 0.000000000000e+00
3.957670000000e+01 -7.782000000847e-01 0.000000000000e+00 9.559829458855e-06 5.248171726122e-06 0.000000000000e+00
3.957670000000e+01 -1.778200000083e+00 0.000000000000e+00 4.225720708237e-06 1.034380667593e-06 0.000000000000e+00
3.957670000000e+01 -2.778200000080e+00 0.000000000000e+00 5.186020164107e-06 -9.486332941154e-07 0.000000000000e+00
3.957670000000e+01 -3.778200000077e+00 0.000000000000e+00 1.697753427053e-05 -3.627470796920e-06 0.000000000000e+00
3.957670000000e+01 -4.778200000074e+00 0.000000000000e+00 1.786242819630e-05 1.425531555052e-06 0.000000000000e+00
3.957670000000e+01 -5.778200000071e+00 0.000000000000e+00 1.117607271004e-05 2.702786791998e-06 0.000000000000e+00
3.957670000000e+01 -6.778200000069e+00 0.000000000000e+00 4.381359721475e-06 9.384679308926e-07 0.000000000000e+00
3.957670000000e+01 -7.778200000066e+00 0.000000000000e+00 2.419580929490e-05 -5.256506125484e-06 0.000000000000e+00
3.957670000000e+01 -8.778200000063e+00 0.000000000000e+00 2.979106898653e-05 -1.096190799876e-05 0.000000000000e+00
3.957670000000e+01 -9.778200000060e+00 0.000000000000e+00 6.383742902120e-06 4.971557354054e-06 0.000000000000e+00
3.957670000000e+01 -1.077820000006e+01 0.000000000000e+00 3.073841971072e-05 5.118544515926e-06 0.000000000000e+00
3.957670000000e+01 -1.177820000005e+01 0.000000000000e+00 2.495705831878e-05 -2.273245274181e-06 0.000000000000e+00
3.957670000000e+01 -1.277820000005e+01 0.000000000000e+00 3.261221332940e-05 -1.267732983421e-05 0.000000000000e+00
3.957670000000e+01 -1.377820000005e+01 0.000000000000e+00 1.392173084944e-05 3.102230383883e-06 0.000000000000e+00
3.957670000000e+01 -1.477820000005e+01 0.000000000000e+00 7.451599318369e-06 3.060394043976e-07 0.000000000000e+00
3.957670000000e+01 -1.577820000004e+01 0.000000000000e+00 2.496930934611e-05 -6.087814405403e-06 0.000000000000e+00
3.957670000000e+01 -1.677820000004e+01 0.000000000000e+00 2.455059194326e-05 -1.888730913158e-08 0.000000000000e+00
3.957670000000e+01 -1.777820000004e+01 0.000000000000e+00 2.327597930768e-05 3.115293204340e-06 0.000000000000e+00
3.957670000000e+01 -1.877820000004e+01 0.000000000000e+00 2.317236387576e-05 2.261923438658e-06 0.000000000000e+00
3.957670000000e+01 -1.977820000003e+01 0.000000000000e+00 1.358548605906e-05 -2.413734216950e-06 0.000000000000e+00
3.957670000000e+01 -2.077820000003e+01 0.000000000000e+00 2.302963919844e-05 -1.175668199827e-05 0.000000000000e+00
3.957670000000e+01 -2.177820000003e+01 0.000000000000e+00 1.458263843137e-05 5.653296131196e-07 0.000000000000e+00
3.957670000000e+01 -2.277820000002e+01 0.000000000000e+00 1.391780158631e-05 -1.891708820040e-06 0.000000000000e+00
3.957670000000e+01 -2.377820000002e+01 0.000000000000e+00 2.031347182885e-05 -9.458972853418e-06 0.000000000000e+00
3.957670000000e+01 -2.477820000002e+01 0.000000000000e+00 1.158568392204e-05 -8.307540162116e-06 0.000000000000e+00
3.957670000000e+01 -2.577820000002e+01 0.000000000000e+00 8.658426197772e-06 1.844992539107e-06 0.000000000000e+00
3.957670000000e+01 -2.677820000001e+01 0.000000000000e+00 5.979760425646e-06 1.546228541602e-06 0.000000000000e+00
3.957670000000e+01 -2.777820000001e+01 0.000000000000e+00 8.782941158993e-06 6.952078023453e-07 0.000000000000e+00
3.957670000000e+01 -2.877820000001e+01 0.000000000000e+00 8.112940605405e-06 4.567347993971e-07 0.000000000000e+00
3.957670000000e+01 -2.977820000000e+01 0.000000000000e+00 7.703144069619e-06 4.958145399883e-06 0.000000000000e+00
3.957670000000e+01 -3.077820000000e+01 0.000000000000e+00 2.515847581633e-06 2.289323066009e-06 0.000000000000e+00
3.957670000000e+01 -3.177820000000e+01 0.000000000000e+00 1.532215856933e-05 3.637800866397e-07 0.000000000000e+00
4.057670000000e+01 -3.277820000000e+01 0.000000000000e+00 1.250452989756e-06 2.868963101231e-07 0.000000000000e+00
4.057670000000e+01 -3.177820000000e+01 0.000000000000e+00 9.090135766810e-07 -1.934034222751e-07 0.000000000000e+00
4.057670000000e+01 -3.077820000000e+01 0.000000000000e+00 9.440814721902e-07 -8.306156818361e-07 0.000000000000e+00
4.057670000000e+01 -2.977820000000e+01 0.000000000000e+00 1.368241581113e-06 -7.475876834485e-07 0.000000000000e+00
4.057670000000e+01 -2.877820000000e+01 0.000000000000e+00 1.549445713989e-06 -8.645189082501e-07 0.000000000000e+00
4.057670000000e+01 -2.777820000001e+01 0.000000000000e+00 1.799619288632e-06 -1.354471784759e-06 0.000000000000e+00
4.057670000000e+01 -2.677820000001e+01 0.000000000000e+00 2.468063597125e-06 -7.367089462600e-07 0.000000000000e+00
4.057670000000e+01 -2.577820000001e+01 0.000000000000e+00 2.602480678900e-06 -5.746459905747e-07 0.000000000000e+00
4.057670000000e+01 -2.477820000001e+01 0.000000000000e+00 2.759514708211e-06 -2.425610141434e-07 0.000000000000e+00
4.057670000000e+01 -2.377820000002e+01 0.000000000000e+00 2.724898300134e-06 -2.438554166122e-08 0.000000000000e+00
4.057670000000e+01 -2.277820000002e+01 0.000000000000e+00 2.599641071652e-06 -3.211650960331e-07 0.000000000000e+00
4.057670000000e+01 -2.177820000002e+01 0.000000000000e+00 2.755779705579e-06 2.889434857024e-07 0.000000000000e+00
4.057670000000e+01 -2.077820000002e+01 0.000000000000e+00 2.305133126409e-06 -7.657719633786e-07 0.000000000000e+00
4.057670000000e+01 -1.977820000002e+01 0.000000000000e+00 2.821929699777e-06 -1.161317632352e-06 0.000000000000e+00
4.057670000000e+01 -1.877820000003e+01 0.000000000000e+00 3.616962821381e-06 -1.813632508150e-07 0.000000000000e+00
4.057670000000e+01 -1.777820000003e+01 0.000000000000e+00 3.673572152188e-06 7.234932353463e-07 0.000000000000e+00
4.057670000000e+01 -1.677820000003e+01 0.000000000000e+00 3.206558773061e-06 1.660484944972e-06 0.000000000000e+00
4.057670000000e+01 -1.577820000003e+01 0.000000000000e+00 2.044165525930e-06 6.126791062781e-07 0.000000000000e+00
4.057670000000e+01 -1.477820000003e+01 0.000000000000e+00 1.814627234484e-06 -1.204769575135e-06 0.000000000000e+00
4.057670000000e+01 -1.377820000004e+01 0.000000000000e+00 2.937337687173e-06 -3.028143210268e-07 0.000000000000e+00
4.057670000000e+01 -1.277820000004e+01 0.000000000000e+00 3.072038943046e-06 -2.844965497219e-08 0.000000000000e+00
4.057670000000e+01 -1.177820000004e+01 0.000000000000e+00 3.178733190995e-06 9.213732502440e-07 0.000000000000e+00
4.057670000000e+01 -1.077820000004e+01 0.000000000000e+00 2.615850918351e-06 7.891851769620e-07 0.000000000000e+00
4.057670000000e+01 -9.778200000046e+00 0.000000000000e+00 2.397959378677e-06 4.648313455716e-07 0.000000000000e+00
4.057670000000e+01 -8.778200000048e+00 0.000000000000e+00 2.506535395220e-06 1.772857359892e-06 0.000000000000e+00
4.057670000000e+01 -7.778200000050e+00 0.000000000000e+00 1.424859810139e-06 1.046665813376e-06 0.000000000000e+00
4.057670000000e+01 -6.778200000052e+00 0.000000000000e+00 1.063370670308e-06 -2.043965928422e-07 0.000000000000e+00
4.057670000000e+01 -5.778200000054e+00 0.000000000000e+00 1.634696562287e-06 1.955677616791e-07 0.000000000000e+00
4.057670000000e+01 -4.778200000056e+00 0.000000000000e+00 1.663575252542e-06 1.035006603327e-06 0.000000000000e+00
4.057670000000e+01 -3.778200000058e+00 0.000000000000e+00 9.549868327263e-07 6.522265237616e-07 0.000000000000e+00
4.057670000000e+01 -2.778200000061e+00 0.000000000000e+00 5.675534353893e-07 -3.856236619204e-07 0.000000000000e+00
4.057670000000e+01 -1.778200000063e+00 0.000000000000e+00 8.667889357472e-07 -7.078188392771e-07 0.000000000000e+00
4.057670000000e+01 -7.782000000643e-01 0.000000000000e+00 1.140903569448e-06 -9.012668798361e-07 0.000000000000e+00
4.057670000000e+01 2.217999999372e-01 0.000000000000e+00 1.423056358051e-06 -1.572073266216e-06 0.000000000000e+00
4.057670000000e+01 1.221799999939e+00 0.000000000000e+00 2.259437092381e-06 -1.387371157397e-06 0.000000000000e+00
4.057670000000e+01 2.221799999941e+00 0.000000000000e+00 2.972439255105e-06 -1.667649501904e-07 0.000000000000e+00
4.057670000000e+01 3.221799999943e+00 0.000000000000e+00 2.836182506452e-06 5.723604459735e-07 0.000000000000e+00
4.057670000000e+01 4.221799999945e+00 0.000000000000e+00 2.406255084941e-06 3.974582497137e-07 0.000000000000e+00
4.057670000000e+01 5.221799999947e+00 0.000000000000e+00 2.368435153402e-06 9.467408470261e-07 0.000000000000e+00
4.057670000000e+01 6.221799999949e+00 0.000000000000e+00 1.891915398951e-06 1.200441353435e-06 0.000000000000e+00
4.057670000000e+01 7.221799999951e+00 0.000000000000e+00 1.266164093041e-06 7.057464005549e-08 0.000000000000e+00
4.057670000000e+01 8.221799999953e+00 0.000000000000e+00 1.645328789791e-06 3.602360703139e-07 0.000000000000e+00
4.057670000000e+01 9.221799999955e+00 0.000000000000e+00 1.594333446892e-06 1.406919685624e-06 0.000000000000e+00
4.057670000000e+01 1.022179999996e+01 0.000000000000e+00 6.060180732618e-07 -6.502868527393e-08 0.000000000000e+00
4.057670000000e+01 1.122179999996e+01 0.000000000000e+00 9.141311690238e-07 -1.882538767994e-07 0.000000000000e+00
4.057670000000e+01 1.222179999996e+01 0.000000000000e+00 1.036801981794e-06 -4.289650110075e-07 0.000000000000e+00
4.057670000000e+01 1.322179999996e+01 0.000000000000e+00 1.296002380198e-06 -6.580747151177e-07 0.000000000000e+00
4.057670000000e+01 1.422179999997e+01 0.000000000000e+00 1.742136080021e-06 7.094578533641e-08 0.000000000000e+00
4.057670000000e+01 1.522179999997e+01 0.000000000000e+00 1.576332705549e-06 4.092044391507e-07 0.000000000000e+00
4.057670000000e+01 1.622179999997e+01 0.000000000000e+00 1.239577519460e-06 8.824002930221e-08 0.000000000000e+00
4.057670000000e+01 1.722179999997e+01 0.000000000000e+00 1.215461275040e-06 -5.794078226819e-08 0.000000000000e+00
4.057670000000e+01 1.822179999997e+01 0.000000000000e+00 1.226213949277e-06 -1.202402637021e-07 0.000000000000e+00
4.057670000000e+01 1.922179999998e+01 0.000000000000e+00 1.243107736688e-06 -8.808468774098e-07 0.000000000000e+00
4.057670000000e+01 2.022179999998e+01 0.000000000000e+00 1.956363485038e-06 -2.252052329177e-07 0.000000000000e+00
4.057670000000e+01 2.122179999998e+01 0.000000000000e+00 2.145187551759e-06 7.150219861789e-07 0.000000000000e+00
4.057670000000e+01 2.222179999998e+01 0.000000000000e+00 1.746007970652e-06 1.538717319076e-06 0.000000000000e+00
4.057670000000e+01 2.322179999998e+01 0.000000000000e+00 8.206721794104e-07 9.782660676337e-07 0.000000000000e+00
4.057670000000e+01 2.422179999999e+01 0.000000000000e+00 4.330590369348e-07 3.270500781690e-07 0.000000000000e+00
4.057670000000e+01 2.522179999999e+01 0.000000000000e+00 4.294767145619e-07 -2.991513870146e-07 0.000000000000e+00
4.057670000000e+01 2.622179999999e+01 0.000000000000e+00 7.908320398410e-07 -1.739279200239e-07 0.000000000000e+00
4.057670000000e+01 2.722179999999e+01 0.000000000000e+00 9.037518465055e-07 2.520334691343e-07 0.000000000000e+00
4.057670000000e+01 2.822179999999e+01 0.000000000000e+00 6.213405891727e-07 -2.251831993935e-07 0.000000000000e+00
4.057670000000e+01 2.922180000000e+01 0.000000000000e+00 7.796439355935e-07 -5.228542277067e-07 0.000000000000e+00
4.057670000000e+01 3.022180000000e+01 0.000000000000e+00 1.147931734363e-06 -2.383626732220e-07 0.000000000000e+00
VARIABLES = "X","Y","Z",VELOCITY_X1,VELOCITY_Y1
ZONE T="3.000000010000e+02s", 
3.957670000000e+01 3.122180000000e+01 0.000000000000e+00 5.863768692515e-06 1.644272206045e-06 0.000000000000e+00