 TITLE = "Profiles along polylines"
 VARIABLES = "DIST" "PRESSURE1" 
 ZONE T="TIME=0.000000000000e+00"
0.000000000000e+00 0.000000000000e+00 
9.999999999972e-01 0.000000000000e+00 
1.999999999994e+00 0.000000000000e+00 
2.999999999992e+00 0.000000000000e+00 
3.999999999989e+00 0.000000000000e+00 
4.999999999986e+00 0.000000000000e+00 
5.999999999983e+00 0.000000000000e+00 
6.999999999981e+00 0.000000000000e+00 
7.999999999978e+00 0.000000000000e+00 
8.999999999975e+00 0.000000000000e+00 
9.999999999972e+00 0.000000000000e+00 
1.099999999997e+01 0.000000000000e+00 
1.199999999997e+01 0.000000000000e+00 
1.299999999996e+01 0.000000000000e+00 
1.399999999996e+01 0.000000000000e+00 
1.499999999996e+01 0.000000000000e+00 
1.599999999996e+01 0.000000000000e+00 
1.699999999995e+01 0.000000000000e+00 
1.799999999995e+01 0.000000000000e+00 
1.899999999995e+01 0.000000000000e+00 
1.999999999994e+01 0.000000000000e+00 
2.099999999994e+01 0.000000000000e+00 
2.199999999994e+01 0.000000000000e+00 
2.299999999994e+01 0.000000000000e+00 
2.399999999993e+01 0.000000000000e+00 
2.499999999993e+01 0.000000000000e+00 
2.599999999993e+01 0.000000000000e+00 
2.699999999993e+01 0.000000000000e+00 
2.799999999992e+01 0.000000000000e+00 
2.899999999992e+01 0.000000000000e+00 
2.999999999992e+01 0.000000000000e+00 
3.099999999991e+01 0.000000000000e+00 
3.199999999991e+01 0.000000000000e+00 
3.299999999991e+01 0.000000000000e+00 
3.399999999992e+01 0.000000000000e+00 
3.499999999992e+01 0.000000000000e+00 
3.599999999992e+01 0.000000000000e+00 
3.699999999993e+01 0.000000000000e+00 
3.799999999993e+01 0.000000000000e+00 
3.899999999993e+01 0.000000000000e+00 
3.999999999993e+01 0.000000000000e+00 
4.099999999994e+01 0.000000000000e+00 
4.199999999994e+01 0.000000000000e+00 
4.299999999994e+01 0.000000000000e+00 
4.399999999994e+01 0.000000000000e+00 
4.499999999995e+01 0.000000000000e+00 
4.599999999995e+01 0.000000000000e+00 
4.699999999995e+01 0.000000000000e+00 
4.799999999996e+01 0.000000000000e+00 
4.899999999996e+01 0.000000000000e+00 
4.999999999996e+01 0.000000000000e+00 
5.099999999996e+01 0.000000000000e+00 
5.199999999997e+01 0.000000000000e+00 
5.299999999997e+01 0.000000000000e+00 
5.399999999997e+01 0.000000000000e+00 
5.499999999998e+01 0.000000000000e+00 
5.599999999998e+01 0.000000000000e+00 
5.699999999998e+01 0.000000000000e+00 
5.799999999998e+01 0.000000000000e+00 
5.899999999999e+01 0.000000000000e+00 
5.999999999999e+01 0.000000000000e+00 
6.099999999999e+01 0.000000000000e+00 
6.199999999999e+01 0.000000000000e+00 
6.300000000000e+01 0.000000000000e+00 
6.400000000000e+01 0.000000000000e+00 
 TITLE = "Profiles along polylines"
 VARIABLES = "DIST" "PRESSURE1" 
 ZONE T="TIME=1.000000000000e-06"
0.000000000000e+00 4.896654215421e+06 
9.999999999972e-01 4.896662072982e+06 
1.999999999994e+00 4.896676586005e+06 
2.999999999992e+00 4.896702606504e+06 
3.999999999989e+00 4.896729696957e+06 
4.999999999986e+00 4.896743840115e+06 
5.999999999983e+00 4.896757165265e+06 
6.999999999981e+00 4.896766238358e+06 
7.999999999978e+00 4.896775640690e+06 
8.999999999975e+00 4.896778746940e+06 
9.999999999972e+00 4.896774762517e+06 
1.099999999997e+01 4.896756356125e+06 
1.199999999997e+01 4.896730578562e+06 
1.299999999996e+01 4.896706732098e+06 
1.399999999996e+01 4.896661653483e+06 
1.499999999996e+01 4.896644957613e+06 
1.599999999996e+01 4.896636724016e+06 
1.699999999995e+01 4.896622777083e+06 
1.799999999995e+01 4.896604398464e+06 
1.899999999995e+01 4.896582899972e+06 
1.999999999994e+01 4.896572137560e+06 
2.099999999994e+01 4.896564050366e+06 
2.199999999994e+01 4.896564251786e+06 
2.299999999994e+01 4.896567788788e+06 
2.399999999993e+01 4.896569318888e+06 
2.499999999993e+01 4.896576145316e+06 
2.599999999993e+01 4.896566595193e+06 
2.699999999993e+01 4.896558771191e+06 
2.799999999992e+01 4.896562065377e+06 
2.899999999992e+01 4.896554960461e+06 
2.999999999992e+01 4.896538634523e+06 
3.099999999991e+01 4.896523701274e+06 
3.199999999991e+01 4.896512503509e+06 
3.299999999991e+01 4.896500584309e+06 
3.399999999992e+01 4.896491866686e+06 
3.499999999992e+01 4.896474486300e+06 
3.599999999992e+01 4.896442355415e+06 
3.699999999993e+01 4.896422836679e+06 
3.799999999993e+01 4.896403816945e+06 
3.899999999993e+01 4.896365201108e+06 
3.999999999993e+01 4.896319085059e+06 
4.099999999994e+01 4.896270625733e+06 
4.199999999994e+01 4.896206780240e+06 
4.299999999994e+01 4.896144765269e+06 
4.399999999994e+01 4.896139616466e+06 
4.499999999995e+01 4.896157826492e+06 
4.599999999995e+01 4.896180358764e+06 
4.699999999995e+01 4.896247201133e+06 
4.799999999996e+01 4.896283870864e+06 
4.899999999996e+01 4.896314132911e+06 
4.999999999996e+01 4.896333519946e+06 
5.099999999996e+01 4.896356592047e+06 
5.199999999997e+01 4.896388452745e+06 
5.299999999997e+01 4.896418254405e+06 
5.399999999997e+01 4.896444540534e+06 
5.499999999998e+01 4.896475312647e+06 
5.599999999998e+01 4.896511485216e+06 
5.699999999998e+01 4.896534982024e+06 
5.799999999998e+01 4.896541896561e+06 
5.899999999999e+01 4.896558381998e+06 
5.999999999999e+01 4.896584195365e+06 
6.099999999999e+01 4.896595902334e+06 
6.199999999999e+01 4.896609360474e+06 
6.300000000000e+01 4.896630016926e+06 
6.400000000000e+01 4.896635179466e+06 
 ZONE T="TIME=3.000000010000e+02"
0.000000000000e+00 4.896654215421e+06 
9.999999999972e-01 4.896662072982e+06 
1.999999999994e+00 4.896676586005e+06 
2.999999999992e+00 4.896702606504e+06 
3.999999999989e+00 4.896729696958e+06 
4.999999999986e+00 4.896743840115e+06 
5.999999999983e+00 4.896757165266e+06 
6.999999999981e+00 4.896766238358e+06 
7.999999999978e+00 4.896775640691e+06 
8.999999999975e+00 4.896778746940e+06 
9.999999999972e+00 4.896774762517e+06 
1.099999999997e+01 4.896756356126e+06 
1.199999999997e+01 4.896730578562e+06 
1.299999999996e+01 4.896706732098e+06 
1.399999999996e+01 4.896661653483e+06 
1.499999999996e+01 4.896644957613e+06 
1.599999999996e+01 4.896636724016e+06 
1.699999999995e+01 4.896622777084e+06 
1.799999999995e+01 4.896604398464e+06 
1.899999999995e+01 4.896582899972e+06 
1.999999999994e+01 4.896572137560e+06 
2.099999999994e+01 4.896564050366e+06 
2.199999999994e+01 4.896564251786e+06 
2.299999999994e+01 4.896567788788e+06 
2.399999999993e+01 4.896569318888e+06 
2.499999999993e+01 4.896576145317e+06 
2.599999999993e+01 4.896566595193e+06 
2.699999999993e+01 4.896558771192e+06 
2.799999999992e+01 4.896562065377e+06 
2.899999999992e+01 4.896554960461e+06 
2.999999999992e+01 4.896538634523e+06 
3.099999999991e+01 4.896523701274e+06 
3.199999999991e+01 4.896512503509e+06 
3.299999999991e+01 4.896500584309e+06 
3.399999999992e+01 4.896491866687e+06 
3.499999999992e+01 4.896474486300e+06 
3.599999999992e+01 4.896442355415e+06 
3.699999999993e+01 4.896422836679e+06 
3.799999999993e+01 4.896403816945e+06 
3.899999999993e+01 4.896365201108e+06 
3.999999999993e+01 4.896319085059e+06 
4.099999999994e+01 4.896270625734e+06 
4.199999999994e+01 4.896206780240e+06 
4.299999999994e+01 4.896144765269e+06 
4.399999999994e+01 4.896139616466e+06 
4.499999999995e+01 4.896157826493e+06 
4.599999999995e+01 4.896180358764e+06 
4.699999999995e+01 4.896247201133e+06 
4.799999999996e+01 4.896283870865e+06 
4.899999999996e+01 4.896314132912e+06 
4.999999999996e+01 4.896333519947e+06 
5.099999999996e+01 4.896356592048e+06 
5.199999999997e+01 4.896388452745e+06 
5.299999999997e+01 4.896418254405e+06 
5.399999999997e+01 4.896444540534e+06 
5.499999999998e+01 4.896475312647e+06 
5.599999999998e+01 4.896511485216e+06 
5.699999999998e+01 4.896534982024e+06 
5.799999999998e+01 4.896541896561e+06 
5.899999999999e+01 4.896558381998e+06 
5.999999999999e+01 4.896584195365e+06 
6.099999999999e+01 4.896595902335e+06 
6.199999999999e+01 4.896609360474e+06 
6.300000000000e+01 4.896630016927e+06 
6.400000000000e+01 4.896635179467e+06 
 ZONE T="TIME=6.000000010000e+02"
0.000000000000e+00 4.896654215421e+06 
9.999999999972e-01 4.896662072983e+06 
1.999999999994e+00 4.896676586006e+06 
2.999999999992e+00 4.896702606504e+06 
3.999999999989e+00 4.896729696958e+06 
4.999999999986e+00 4.896743840116e+06 
5.999999999983e+00 4.896757165266e+06 
6.999999999981e+00 4.896766238359e+06 
7.999999999978e+00 4.896775640691e+06 
8.999999999975e+00 4.896778746940e+06 
9.999999999972e+00 4.896774762518e+06 
1.099999999997e+01 4.896756356126e+06 
1.199999999997e+01 4.896730578562e+06 
1.299999999996e+01 4.896706732098e+06 
1.399999999996e+01 4.896661653483e+06 
1.499999999996e+01 4.896644957614e+06 
1.599999999996e+01 4.896636724017e+06 
1.699999999995e+01 4.896622777084e+06 
1.799999999995e+01 4.896604398465e+06 
1.899999999995e+01 4.896582899972e+06 
1.999999999994e+01 4.896572137561e+06 
2.099999999994e+01 4.896564050366e+06 
2.199999999994e+01 4.896564251786e+06 
2.299999999994e+01 4.896567788788e+06 
2.399999999993e+01 4.896569318889e+06 
2.499999999993e+01 4.896576145317e+06 
2.599999999993e+01 4.896566595194e+06 
2.699999999993e+01 4.896558771192e+06 
2.799999999992e+01 4.896562065378e+06 
2.899999999992e+01 4.896554960462e+06 
2.999999999992e+01 4.896538634523e+06 
3.099999999991e+01 4.896523701274e+06 
3.199999999991e+01 4.896512503509e+06 
3.299999999991e+01 4.896500584310e+06 
3.399999999992e+01 4.896491866687e+06 
3.499999999992e+01 4.896474486301e+06 
3.599999999992e+01 4.896442355415e+06 
3.699999999993e+01 4.896422836680e+06 
3.799999999993e+01 4.896403816945e+06 
3.899999999993e+01 4.896365201109e+06 
3.999999999993e+01 4.896319085059e+06 
4.099999999994e+01 4.896270625734e+06 
4.199999999994e+01 4.896206780240e+06 
4.299999999994e+01 4.896144765270e+06 
4.399999999994e+01 4.896139616467e+06 
4.499999999995e+01 4.896157826493e+06 
4.599999999995e+01 4.896180358765e+06 
4.699999999995e+01 4.896247201133e+06 
4.799999999996e+01 4.896283870865e+06 
4.899999999996e+01 4.896314132912e+06 
4.999999999996e+01 4.896333519947e+06 
5.099999999996e+01 4.896356592048e+06 
5.199999999997e+01 4.896388452745e+06 
5.299999999997e+01 4.896418254405e+06 
5.399999999997e+01 4.896444540534e+06 
5.499999999998e+01 4.896475312648e+06 
5.599999999998e+01 4.896511485217e+06 
5.699999999998e+01 4.896534982024e+06 
5.799999999998e+01 4.896541896562e+06 
5.899999999999e+01 4.896558381998e+06 
5.999999999999e+01 4.896584195366e+06 
6.099999999999e+01 4.896595902335e+06 
6.199999999999e+01 4.896609360475e+06 
6.300000000000e+01 4.896630016927e+06 
6.400000000000e+01 4.896635179467e+06 
 ZONE T="TIME=9.000000010000e+02"
0.000000000000e+00 4.896654215421e+06 
9.999999999972e-01 4.896662072982e+06 
1.999999999994e+00 4.896676586005e+06 
2.999999999992e+00 4.896702606504e+06 
3.999999999989e+00 4.896729696958e+06 
4.999999999986e+00 4.896743840116e+06 
5.999999999983e+00 4.896757165266e+06 
6.999999999981e+00 4.896766238359e+06 
7.999999999978e+00 4.896775640691e+06 
8.999999999975e+00 4.896778746940e+06 
9.999999999972e+00 4.896774762517e+06 
1.099999999997e+01 4.896756356126e+06 
1.199999999997e+01 4.896730578562e+06 
1.299999999996e+01 4.896706732098e+06 
1.399999999996e+01 4.896661653483e+06 
1.499999999996e+01 4.896644957614e+06 
1.599999999996e+01 4.896636724016e+06 
1.699999999995e+01 4.896622777084e+06 
1.799999999995e+01 4.896604398465e+06 
1.899999999995e+01 4.896582899972e+06 
1.999999999994e+01 4.896572137560e+06 
2.099999999994e+01 4.896564050366e+06 
2.199999999994e+01 4.896564251786e+06 
2.299999999994e+01 4.896567788788e+06 
2.399999999993e+01 4.896569318888e+06 
2.499999999993e+01 4.896576145317e+06 
2.599999999993e+01 4.896566595193e+06 
2.699999999993e+01 4.896558771192e+06 
2.799999999992e+01 4.896562065378e+06 
2.899999999992e+01 4.896554960461e+06 
2.999999999992e+01 4.896538634523e+06 
3.099999999991e+01 4.896523701274e+06 
3.199999999991e+01 4.896512503509e+06 
3.299999999991e+01 4.896500584310e+06 
3.399999999992e+01 4.896491866687e+06 
3.499999999992e+01 4.896474486300e+06 
3.599999999992e+01 4.896442355415e+06 
3.699999999993e+01 4.896422836679e+06 
3.799999999993e+01 4.896403816945e+06 
3.899999999993e+01 4.896365201109e+06 
3.999999999993e+01 4.896319085059e+06 
4.099999999994e+01 4.896270625734e+06 
4.199999999994e+01 4.896206780240e+06 
4.299999999994e+01 4.896144765270e+06 
4.399999999994e+01 4.896139616466e+06 
4.499999999995e+01 4.896157826493e+06 
4.599999999995e+01 4.896180358764e+06 
4.699999999995e+01 4.896247201133e+06 
4.799999999996e+01 4.896283870865e+06 
4.899999999996e+01 4.896314132912e+06 
4.999999999996e+01 4.896333519947e+06 
5.099999999996e+01 4.896356592048e+06 
5.199999999997e+01 4.896388452745e+06 
5.299999999997e+01 4.896418254405e+06 
5.399999999997e+01 4.896444540534e+06 
5.499999999998e+01 4.896475312647e+06 
5.599999999998e+01 4.896511485216e+06 
5.699999999998e+01 4.896534982024e+06 
5.799999999998e+01 4.896541896562e+06 
5.899999999999e+01 4.896558381998e+06 
5.999999999999e+01 4.896584195365e+06 
6.099999999999e+01 4.896595902335e+06 
6.199999999999e+01 4.896609360475e+06 
6.300000000000e+01 4.896630016927e+06 
6.400000000000e+01 4.896635179467e+06 
 ZONE T="TIME=1.200000001000e+03"
0.000000000000e+00 4.896654215421e+06 
9.999999999972e-01 4.896662072982e+06 
1.999999999994e+00 4.896676586005e+06 
2.999999999992e+00 4.896702606504e+06 
3.999999999989e+00 4.896729696958e+06 
4.999999999986e+00 4.896743840115e+06 
5.999999999983e+00 4.896757165266e+06 
6.999999999981e+00 4.896766238358e+06 
7.999999999978e+00 4.896775640691e+06 
8.999999999975e+00 4.896778746940e+06 
9.999999999972e+00 4.896774762517e+06 
1.099999999997e+01 4.896756356126e+06 
1.199999999997e+01 4.896730578562e+06 
1.299999999996e+01 4.896706732098e+06 
1.399999999996e+01 4.896661653483e+06 
1.499999999996e+01 4.896644957613e+06 
1.599999999996e+01 4.896636724016e+06 
1.699999999995e+01 4.896622777084e+06 
1.799999999995e+01 4.896604398464e+06 
1.899999999995e+01 4.896582899972e+06 
1.999999999994e+01 4.896572137560e+06 
2.099999999994e+01 4.896564050366e+06 
2.199999999994e+01 4.896564251786e+06 
2.299999999994e+01 4.896567788788e+06 
2.399999999993e+01 4.896569318888e+06 
2.499999999993e+01 4.896576145317e+06 
2.599999999993e+01 4.896566595193e+06 
2.699999999993e+01 4.896558771192e+06 
2.799999999992e+01 4.896562065377e+06 
2.899999999992e+01 4.896554960461e+06 
2.999999999992e+01 4.896538634523e+06 
3.099999999991e+01 4.896523701274e+06 
3.199999999991e+01 4.896512503509e+06 
3.299999999991e+01 4.896500584309e+06 
3.399999999992e+01 4.896491866687e+06 
3.499999999992e+01 4.896474486300e+06 
3.599999999992e+01 4.896442355415e+06 
3.699999999993e+01 4.896422836679e+06 
3.799999999993e+01 4.896403816945e+06 
3.899999999993e+01 4.896365201108e+06 
3.999999999993e+01 4.896319085059e+06 
4.099999999994e+01 4.896270625734e+06 
4.199999999994e+01 4.896206780240e+06 
4.299999999994e+01 4.896144765269e+06 
4.399999999994e+01 4.896139616466e+06 
4.499999999995e+01 4.896157826493e+06 
4.599999999995e+01 4.896180358764e+06 
4.699999999995e+01 4.896247201133e+06 
4.799999999996e+01 4.896283870865e+06 
4.899999999996e+01 4.896314132912e+06 
4.999999999996e+01 4.896333519947e+06 
5.099999999996e+01 4.896356592048e+06 
5.199999999997e+01 4.896388452745e+06 
5.299999999997e+01 4.896418254405e+06 
5.399999999997e+01 4.896444540534e+06 
5.499999999998e+01 4.896475312647e+06 
5.599999999998e+01 4.896511485216e+06 
5.699999999998e+01 4.896534982024e+06 
5.799999999998e+01 4.896541896561e+06 
5.899999999999e+01 4.896558381998e+06 
5.999999999999e+01 4.896584195365e+06 
6.099999999999e+01 4.896595902335e+06 
6.199999999999e+01 4.896609360474e+06 
6.300000000000e+01 4.896630016927e+06 
6.400000000000e+01 4.896635179467e+06 
 ZONE T="TIME=1.500000001000e+03"
0.000000000000e+00 4.896654215421e+06 
9.999999999972e-01 4.896662072982e+06 
1.999999999994e+00 4.896676586005e+06 
2.999999999992e+00 4.896702606504e+06 
3.999999999989e+00 4.896729696957e+06 
4.999999999986e+00 4.896743840115e+06 
5.999999999983e+00 4.896757165265e+06 
6.999999999981e+00 4.896766238358e+06 
7.999999999978e+00 4.896775640690e+06 
8.999999999975e+00 4.896778746940e+06 
9.999999999972e+00 4.896774762517e+06 
1.099999999997e+01 4.896756356125e+06 
1.199999999997e+01 4.896730578562e+06 
1.299999999996e+01 4.896706732098e+06 
1.399999999996e+01 4.896661653483e+06 
1.499999999996e+01 4.896644957613e+06 
1.599999999996e+01 4.896636724016e+06 
1.699999999995e+01 4.896622777084e+06 
1.799999999995e+01 4.896604398464e+06 
1.899999999995e+01 4.896582899972e+06 
1.999999999994e+01 4.896572137560e+06 
2.099999999994e+01 4.896564050366e+06 
2.199999999994e+01 4.896564251786e+06 
2.299999999994e+01 4.896567788788e+06 
2.399999999993e+01 4.896569318888e+06 
2.499999999993e+01 4.896576145316e+06 
2.599999999993e+01 4.896566595193e+06 
2.699999999993e+01 4.896558771191e+06 
2.799999999992e+01 4.896562065377e+06 
2.899999999992e+01 4.896554960461e+06 
2.999999999992e+01 4.896538634523e+06 
3.099999999991e+01 4.896523701274e+06 
3.199999999991e+01 4.896512503509e+06 
3.299999999991e+01 4.896500584309e+06 
3.399999999992e+01 4.896491866686e+06 
3.499999999992e+01 4.896474486300e+06 
3.599999999992e+01 4.896442355415e+06 
3.699999999993e+01 4.896422836679e+06 
3.799999999993e+01 4.896403816945e+06 
3.899999999993e+01 4.896365201108e+06 
3.999999999993e+01 4.896319085059e+06 
4.099999999994e+01 4.896270625733e+06 
4.199999999994e+01 4.896206780240e+06 
4.299999999994e+01 4.896144765269e+06 
4.399999999994e+01 4.896139616466e+06 
4.499999999995e+01 4.896157826492e+06 
4.599999999995e+01 4.896180358764e+06 
4.699999999995e+01 4.896247201133e+06 
4.799999999996e+01 4.896283870864e+06 
4.899999999996e+01 4.896314132911e+06 
4.999999999996e+01 4.896333519946e+06 
5.099999999996e+01 4.896356592047e+06 
5.199999999997e+01 4.896388452745e+06 
5.299999999997e+01 4.896418254405e+06 
5.399999999997e+01 4.896444540534e+06 
5.499999999998e+01 4.896475312647e+06 
5.599999999998e+01 4.896511485216e+06 
5.699999999998e+01 4.896534982024e+06 
5.799999999998e+01 4.896541896561e+06 
5.899999999999e+01 4.896558381998e+06 
5.999999999999e+01 4.896584195365e+06 
6.099999999999e+01 4.896595902334e+06 
6.199999999999e+01 4.896609360474e+06 
6.300000000000e+01 4.896630016926e+06 
6.400000000000e+01 4.896635179466e+06 
 ZONE T="TIME=1.800000001000e+03"
0.000000000000e+00 4.896654215422e+06 
9.999999999972e-01 4.896662072983e+06 
1.999999999994e+00 4.896676586006e+06 
2.999999999992e+00 4.896702606505e+06 
3.999999999989e+00 4.896729696958e+06 
4.999999999986e+00 4.896743840116e+06 
5.999999999983e+00 4.896757165266e+06 
6.999999999981e+00 4.896766238359e+06 
7.999999999978e+00 4.896775640691e+06 
8.999999999975e+00 4.896778746940e+06 
9.999999999972e+00 4.896774762518e+06 
1.099999999997e+01 4.896756356126e+06 
1.199999999997e+01 4.896730578563e+06 
1.299999999996e+01 4.896706732098e+06 
1.399999999996e+01 4.896661653484e+06 
1.499999999996e+01 4.896644957614e+06 
1.599999999996e+01 4.896636724017e+06 
1.699999999995e+01 4.896622777084e+06 
1.799999999995e+01 4.896604398465e+06 
1.899999999995e+01 4.896582899973e+06 
1.999999999994e+01 4.896572137561e+06 
2.099999999994e+01 4.896564050366e+06 
2.199999999994e+01 4.896564251787e+06 
2.299999999994e+01 4.896567788789e+06 
2.399999999993e+01 4.896569318889e+06 
2.499999999993e+01 4.896576145317e+06 
2.599999999993e+01 4.896566595194e+06 
2.699999999993e+01 4.896558771192e+06 
2.799999999992e+01 4.896562065378e+06 
2.899999999992e+01 4.896554960462e+06 
2.999999999992e+01 4.896538634524e+06 
3.099999999991e+01 4.896523701275e+06 
3.199999999991e+01 4.896512503510e+06 
3.299999999991e+01 4.896500584310e+06 
3.399999999992e+01 4.896491866687e+06 
3.499999999992e+01 4.896474486301e+06 
3.599999999992e+01 4.896442355416e+06 
3.699999999993e+01 4.896422836680e+06 
3.799999999993e+01 4.896403816946e+06 
3.899999999993e+01 4.896365201109e+06 
3.999999999993e+01 4.896319085060e+06 
4.099999999994e+01 4.896270625734e+06 
4.199999999994e+01 4.896206780241e+06 
4.299999999994e+01 4.896144765270e+06 
4.399999999994e+01 4.896139616467e+06 
4.499999999995e+01 4.896157826493e+06 
4.599999999995e+01 4.896180358765e+06 
4.699999999995e+01 4.896247201134e+06 
4.799999999996e+01 4.896283870865e+06 
4.899999999996e+01 4.896314132913e+06 
4.999999999996e+01 4.896333519947e+06 
5.099999999996e+01 4.896356592048e+06 
5.199999999997e+01 4.896388452746e+06 
5.299999999997e+01 4.896418254406e+06 
5.399999999997e+01 4.896444540535e+06 
5.499999999998e+01 4.896475312648e+06 
5.599999999998e+01 4.896511485217e+06 
5.699999999998e+01 4.896534982025e+06 
5.799999999998e+01 4.896541896562e+06 
5.899999999999e+01 4.896558381999e+06 
5.999999999999e+01 4.896584195366e+06 
6.099999999999e+01 4.896595902335e+06 
6.199999999999e+01 4.896609360475e+06 
6.300000000000e+01 4.896630016927e+06 
6.400000000000e+01 4.896635179467e+06 
 ZONE T="TIME=2.100000001000e+03"
0.000000000000e+00 4.896654215421e+06 
9.999999999972e-01 4.896662072983e+06 
1.999999999994e+00 4.896676586006e+06 
2.999999999992e+00 4.896702606504e+06 
3.999999999989e+00 4.896729696958e+06 
4.999999999986e+00 4.896743840116e+06 
5.999999999983e+00 4.896757165266e+06 
6.999999999981e+00 4.896766238359e+06 
7.999999999978e+00 4.896775640691e+06 
8.999999999975e+00 4.896778746940e+06 
9.999999999972e+00 4.896774762517e+06 
1.099999999997e+01 4.896756356126e+06 
1.199999999997e+01 4.896730578562e+06 
1.299999999996e+01 4.896706732098e+06 
1.399999999996e+01 4.896661653483e+06 
1.499999999996e+01 4.896644957614e+06 
1.599999999996e+01 4.896636724017e+06 
1.699999999995e+01 4.896622777084e+06 
1.799999999995e+01 4.896604398465e+06 
1.899999999995e+01 4.896582899972e+06 
1.999999999994e+01 4.896572137561e+06 
2.099999999994e+01 4.896564050366e+06 
2.199999999994e+01 4.896564251786e+06 
2.299999999994e+01 4.896567788788e+06 
2.399999999993e+01 4.896569318888e+06 
2.499999999993e+01 4.896576145317e+06 
2.599999999993e+01 4.896566595193e+06 
2.699999999993e+01 4.896558771192e+06 
2.799999999992e+01 4.896562065378e+06 
2.899999999992e+01 4.896554960462e+06 
2.999999999992e+01 4.896538634523e+06 
3.099999999991e+01 4.896523701274e+06 
3.199999999991e+01 4.896512503509e+06 
3.299999999991e+01 4.896500584310e+06 
3.399999999992e+01 4.896491866687e+06 
3.499999999992e+01 4.896474486300e+06 
3.599999999992e+01 4.896442355415e+06 
3.699999999993e+01 4.896422836680e+06 
3.799999999993e+01 4.896403816945e+06 
3.899999999993e+01 4.896365201109e+06 
3.999999999993e+01 4.896319085059e+06 
4.099999999994e+01 4.896270625734e+06 
4.199999999994e+01 4.896206780240e+06 
4.299999999994e+01 4.896144765270e+06 
4.399999999994e+01 4.896139616466e+06 
4.499999999995e+01 4.896157826493e+06 
4.599999999995e+01 4.896180358765e+06 
4.699999999995e+01 4.896247201133e+06 
4.799999999996e+01 4.896283870865e+06 
4.899999999996e+01 4.896314132912e+06 
4.999999999996e+01 4.896333519947e+06 
5.099999999996e+01 4.896356592048e+06 
5.199999999997e+01 4.896388452745e+06 
5.299999999997e+01 4.896418254405e+06 
5.399999999997e+01 4.896444540534e+06 
5.499999999998e+01 4.896475312647e+06 
5.599999999998e+01 4.896511485217e+06 
5.699999999998e+01 4.896534982024e+06 
5.799999999998e+01 4.896541896562e+06 
5.899999999999e+01 4.896558381998e+06 
5.999999999999e+01 4.896584195365e+06 
6.099999999999e+01 4.896595902335e+06 
6.199999999999e+01 4.896609360475e+06 
6.300000000000e+01 4.896630016927e+06 
6.400000000000e+01 4.896635179467e+06 
 ZONE T="TIME=2.400000001000e+03"
0.000000000000e+00 4.896810935773e+06 
9.999999999972e-01 4.896818841523e+06 
1.999999999994e+00 4.896833433773e+06 
2.999999999992e+00 4.896859591934e+06 
3.999999999989e+00 4.896886792666e+06 
4.999999999986e+00 4.896900988303e+06 
5.999999999983e+00 4.896914340358e+06 
6.999999999981e+00 4.896923418526e+06 
7.999999999978e+00 4.896932807035e+06 
8.999999999975e+00 4.896935856806e+06 
9.999999999972e+00 4.896931780650e+06 
1.099999999997e+01 4.896913259273e+06 
1.199999999997e+01 4.896887321567e+06 
1.299999999996e+01 4.896863300732e+06 
1.399999999996e+01 4.896817925288e+06 
1.499999999996e+01 4.896801063250e+06 
1.599999999996e+01 4.896792734890e+06 
1.699999999995e+01 4.896778644716e+06 
1.799999999995e+01 4.896760083528e+06 
1.899999999995e+01 4.896738376372e+06 
1.999999999994e+01 4.896727487584e+06 
2.099999999994e+01 4.896719292329e+06 
2.199999999994e+01 4.896719451114e+06 
2.299999999994e+01 4.896722958553e+06 
2.399999999993e+01 4.896724441540e+06 
2.499999999993e+01 4.896731237035e+06 
2.599999999993e+01 4.896721570978e+06 
2.699999999993e+01 4.896713643710e+06 
2.799999999992e+01 4.896716889405e+06 
2.899999999992e+01 4.896709664614e+06 
2.999999999992e+01 4.896693181031e+06 
3.099999999991e+01 4.896678089262e+06 
3.199999999991e+01 4.896666752952e+06 
3.299999999991e+01 4.896654684455e+06 
3.399999999992e+01 4.896645821462e+06 
3.499999999992e+01 4.896628253382e+06 
3.599999999992e+01 4.896595875349e+06 
3.699999999993e+01 4.896576154441e+06 
3.799999999993e+01 4.896556928162e+06 
3.899999999993e+01 4.896518042982e+06 
3.999999999993e+01 4.896471606219e+06 
4.099999999994e+01 4.896422776309e+06 
4.199999999994e+01 4.896358396965e+06 
4.299999999994e+01 4.896295710024e+06 
4.399999999994e+01 4.896290491084e+06 
4.499999999995e+01 4.896308869788e+06 
4.599999999995e+01 4.896331593419e+06 
4.699999999995e+01 4.896398981443e+06 
4.799999999996e+01 4.896435929980e+06 
4.899999999996e+01 4.896466421464e+06 
4.999999999996e+01 4.896485969086e+06 
5.099999999996e+01 4.896509222066e+06 
5.199999999997e+01 4.896541318764e+06 
5.299999999997e+01 4.896571333159e+06 
5.399999999997e+01 4.896597812199e+06 
5.499999999998e+01 4.896628799616e+06 
5.599999999998e+01 4.896665178535e+06 
5.699999999998e+01 4.896688839739e+06 
5.799999999998e+01 4.896695861506e+06 
5.899999999999e+01 4.896712459646e+06 
5.999999999999e+01 4.896738412332e+06 
6.099999999999e+01 4.896750195394e+06 
6.199999999999e+01 4.896763718893e+06 
6.300000000000e+01 4.896784426916e+06 
6.400000000000e+01 4.896789603233e+06 
 ZONE T="TIME=2.700000001000e+03"
0.000000000000e+00 4.896961462689e+06 
9.999999999972e-01 4.896969413538e+06 
1.999999999994e+00 4.896984079663e+06 
2.999999999992e+00 4.897010365993e+06 
3.999999999989e+00 4.897037668895e+06 
4.999999999986e+00 4.897051912766e+06 
5.999999999983e+00 4.897065288810e+06 
6.999999999981e+00 4.897074370497e+06 
7.999999999978e+00 4.897083744609e+06 
8.999999999975e+00 4.897086739914e+06 
9.999999999972e+00 4.897082576572e+06 
1.099999999997e+01 4.897063946783e+06 
1.199999999997e+01 4.897037858316e+06 
1.299999999996e+01 4.897013672979e+06 
1.399999999996e+01 4.896968018596e+06 
1.499999999996e+01 4.896950999545e+06 
1.599999999996e+01 4.896942580778e+06 
1.699999999995e+01 4.896928354823e+06 
1.799999999995e+01 4.896909620689e+06 
1.899999999995e+01 4.896887716149e+06 
1.999999999994e+01 4.896876707297e+06 
2.099999999994e+01 4.896868409021e+06 
2.199999999994e+01 4.896868526216e+06 
2.299999999994e+01 4.896872003878e+06 
2.399999999993e+01 4.896873440566e+06 
2.499999999993e+01 4.896880204410e+06 
2.599999999993e+01 4.896870427115e+06 
2.699999999993e+01 4.896862400890e+06 
2.799999999992e+01 4.896865598365e+06 
2.899999999992e+01 4.896858258027e+06 
2.999999999992e+01 4.896841623989e+06 
3.099999999991e+01 4.896826380902e+06 
3.199999999991e+01 4.896814911974e+06 
3.299999999991e+01 4.896802700447e+06 
3.399999999992e+01 4.896793697973e+06 
3.499999999992e+01 4.896775950519e+06 
3.599999999992e+01 4.896743337939e+06 
3.699999999993e+01 4.896723424655e+06 
3.799999999993e+01 4.896704001365e+06 
3.899999999993e+01 4.896664860585e+06 
3.999999999993e+01 4.896618120498e+06 
4.099999999994e+01 4.896568940503e+06 
4.199999999994e+01 4.896504057675e+06 
4.299999999994e+01 4.896440736183e+06 
4.399999999994e+01 4.896435450605e+06 
4.499999999995e+01 4.896453987881e+06 
4.599999999995e+01 4.896476891389e+06 
4.699999999995e+01 4.896544792223e+06 
4.799999999996e+01 4.896582002717e+06 
4.899999999996e+01 4.896612709819e+06 
4.999999999996e+01 4.896632408637e+06 
5.099999999996e+01 4.896655831837e+06 
5.199999999997e+01 4.896688150405e+06 
5.299999999997e+01 4.896718364750e+06 
5.399999999997e+01 4.896745025198e+06 
5.499999999998e+01 4.896776214907e+06 
5.599999999998e+01 4.896812787346e+06 
5.699999999998e+01 4.896836603163e+06 
5.799999999998e+01 4.896843726438e+06 
5.899999999999e+01 4.896860430576e+06 
5.999999999999e+01 4.896886513819e+06 
6.099999999999e+01 4.896898368529e+06 
6.199999999999e+01 4.896911953254e+06 
6.300000000000e+01 4.896932708999e+06 
6.400000000000e+01 4.896937898155e+06 
 ZONE T="TIME=3.000000001000e+03"
0.000000000000e+00 4.897127556744e+06 
9.999999999972e-01 4.897135556101e+06 
1.999999999994e+00 4.897150301456e+06 
2.999999999992e+00 4.897176725036e+06 
3.999999999989e+00 4.897204136980e+06 
4.999999999986e+00 4.897218432071e+06 
5.999999999983e+00 4.897231833060e+06 
6.999999999981e+00 4.897240917649e+06 
7.999999999978e+00 4.897250275277e+06 
8.999999999975e+00 4.897253210900e+06 
9.999999999972e+00 4.897248953072e+06 
1.099999999997e+01 4.897230206537e+06 
1.199999999997e+01 4.897203955744e+06 
1.299999999996e+01 4.897179592913e+06 
1.399999999996e+01 4.897133638297e+06 
1.499999999996e+01 4.897116449585e+06 
1.599999999996e+01 4.897107933031e+06 
1.699999999995e+01 4.897093560236e+06 
1.799999999995e+01 4.897074639146e+06 
1.899999999995e+01 4.897052521235e+06 