 TITLE = "Time curves in points"
 VARIABLES = "TIME "  "PRESSURE1" 
 ZONE T="POINT=POINTL2_MID"
0.000000000000e+00 0.000000000000e+00 
1.000000000000e-06 4.896512503509e+06 
3.000000010000e+02 4.896512503509e+06 
6.000000010000e+02 4.896512503509e+06 
9.000000010000e+02 4.896512503509e+06 
1.200000001000e+03 4.896512503509e+06 
1.500000001000e+03 4.896512503509e+06 
1.800000001000e+03 4.896512503510e+06 
2.100000001000e+03 4.896512503509e+06 
2.400000001000e+03 4.896666752952e+06 
2.700000001000e+03 4.896814911974e+06 
3.000000001000e+03 4.896978436292e+06 
3.300000001000e+03 4.897147039021e+06 
3.600000001000e+03 4.897309239311e+06 
3.900000001000e+03 4.897488347253e+06 
4.200000001000e+03 4.896512503509e+06 
4.500000001000e+03 4.897045252123e+06 
4.800000001000e+03 4.897635646159e+06 
5.100000001000e+03 4.898290758978e+06 
5.400000001000e+03 4.899018983418e+06 
5.700000001000e+03 4.899828447953e+06 
6.000000001000e+03 4.900726322693e+06 
6.300000001000e+03 4.896512503509e+06 
6.600000001000e+03 4.897452069654e+06 
6.900000001000e+03 4.898587144329e+06 
7.200000001000e+03 4.899931271113e+06 
7.500000001000e+03 4.901536435143e+06 
7.800000001000e+03 4.903562808920e+06 
8.100000001000e+03 4.905745963488e+06 
8.400000001000e+03 4.896512503509e+06 
8.700000001000e+03 4.897635646162e+06 
9.000000001000e+03 4.899018983456e+06 
9.300000001000e+03 4.900726322937e+06 
9.600000001000e+03 4.902835721994e+06 
9.900000001000e+03 4.905453514835e+06 
1.020000000100e+04 4.908664412655e+06 
1.050000000100e+04 4.896512503509e+06 
1.080000000100e+04 4.897452069653e+06 
1.110000000100e+04 4.898587144330e+06 
1.140000000100e+04 4.899931271113e+06 
1.170000000100e+04 4.901536435143e+06 
1.200000000100e+04 4.903562808918e+06 
1.230000000100e+04 4.905745963489e+06 
1.260000000100e+04 4.896512503510e+06 
1.290000000100e+04 4.897045252124e+06 
1.320000000100e+04 4.897635646159e+06 
1.350000000100e+04 4.898290758978e+06 
1.380000000100e+04 4.899018983419e+06 
1.410000000100e+04 4.899828447955e+06 
1.440000000100e+04 4.900726322693e+06 
1.470000000100e+04 4.896512503508e+06 
1.500000000100e+04 4.896666752952e+06 
1.530000000100e+04 4.896814911975e+06 
1.560000000100e+04 4.896978436293e+06 
1.590000000100e+04 4.897147039020e+06 
1.620000000100e+04 4.897309239312e+06 
1.650000000100e+04 4.897488347253e+06 
1.680000000100e+04 4.896512503509e+06 
1.710000000100e+04 4.896512503509e+06 
1.740000000100e+04 4.896512503509e+06 
1.770000000100e+04 4.896512503509e+06 
1.800000000100e+04 4.896512503509e+06 
1.830000000100e+04 4.896512503509e+06 
1.860000000100e+04 4.896512503509e+06 
