VARIABLES = "Time","Fluid_flux m3/s","Av._Ch_Ap","Contact_area","Hydraulic_Aperture","P2","P1","Si ppm","Pnorm","Chem Si ppm"
ZONE T=L4
0.000000000000e+00 0.000000000000e+00 0.000000000000e+00 0.000000000000e+00 0.000000000000e+00 0.000000000000e+00 0.000000000000e+00 0.000000000000e+00 0.000000000000e+00 0.000000000000e+00
1.000000000000e-06 8.333333336200e-08 5.823850822774e-04 1.269531250001e-02 5.109708951805e-05 4.890114395989e+06 4.897610084134e+06 0.000000000000e+00 2.104052374500e+03 0.000000000000e+00
3.000000010000e+02 8.333333334349e-08 5.823754919078e-04 1.269531250001e-02 5.104913364793e-05 4.890114415330e+06 4.897631247812e+06 0.000000000000e+00 2.109987625845e+03 0.000000000000e+00
6.000000010000e+02 8.333333333010e-08 5.823754919067e-04 1.269531250001e-02 5.104913364637e-05 4.890114415330e+06 4.897631247811e+06 0.000000000000e+00 2.109987626039e+03 0.000000000000e+00
9.000000010000e+02 8.333333333113e-08 5.823754919066e-04 1.269531250001e-02 5.104913364620e-05 4.890114415330e+06 4.897631247812e+06 0.000000000000e+00 2.109987626059e+03 0.000000000000e+00
1.200000001000e+03 8.333333333142e-08 5.823754919067e-04 1.269531250001e-02 5.104913364646e-05 4.890114415330e+06 4.897631247811e+06 0.000000000000e+00 2.109987626027e+03 0.000000000000e+00
1.500000001000e+03 8.333333333935e-08 5.823754919075e-04 1.269531250001e-02 5.104913364719e-05 4.890114415330e+06 4.897631247812e+06 0.000000000000e+00 2.109987625937e+03 0.000000000000e+00
1.800000001000e+03 8.333333333285e-08 5.823754919069e-04 1.269531250001e-02 5.104913364670e-05 4.890114415330e+06 4.897631247811e+06 0.000000000000e+00 2.109987625998e+03 0.000000000000e+00
2.100000001000e+03 8.333333333653e-08 5.823754919070e-04 1.269531250001e-02 5.104913364691e-05 4.890114415330e+06 4.897631247812e+06 0.000000000000e+00 2.109987625971e+03 0.000000000000e+00
2.400000001000e+03 8.333333334617e-08 5.754589199030e-04 1.367187500001e-02 5.019984567212e-05 4.890113178970e+06 4.898018014786e+06 0.000000000000e+00 2.218900819844e+03 0.000000000000e+00
2.700000001000e+03 8.333333335893e-08 5.686578512773e-04 1.367187500001e-02 4.941146386807e-05 4.890111968031e+06 4.898401248582e+06 0.000000000000e+00 2.326815108381e+03 0.000000000000e+00
3.000000001000e+03 8.333333337562e-08 5.632353872388e-04 1.757812500001e-02 4.856322544798e-05 4.890110708143e+06 4.898841978357e+06 0.000000000000e+00 2.450882355939e+03 0.000000000000e+00
3.300000001000e+03 8.333333344513e-08 5.561567959301e-04 1.757812500001e-02 4.772317763351e-05 4.890109253622e+06 4.899309764446e+06 0.000000000000e+00 2.582598988904e+03 0.000000000000e+00
3.600000001000e+03 8.333333350942e-08 5.500897332266e-04 1.855468750001e-02 4.694215288635e-05 4.890107836521e+06 4.899775265499e+06 0.000000000000e+00 2.713663704438e+03 0.000000000000e+00
3.900000001000e+03 8.333333369189e-08 5.432273775890e-04 1.855468750001e-02 4.610670648828e-05 4.890106247150e+06 4.900308772910e+06 0.000000000000e+00 2.863866271786e+03 0.000000000000e+00
4.200000001000e+03 8.333333330657e-08 5.823754918627e-04 1.269531250001e-02 5.104913367003e-05 4.890114415330e+06 4.897631247799e+06 0.000000000000e+00 2.109987623104e+03 0.000000000000e+00
4.500000001000e+03 8.333333356031e-08 5.603918223047e-04 1.757812500001e-02 4.822700962726e-05 4.890110134465e+06 4.899025291548e+06 0.000000000000e+00 2.502499706454e+03 0.000000000000e+00
4.800000001000e+03 8.333333518163e-08 5.386748846235e-04 2.050781250001e-02 4.543200088062e-05 4.890104972670e+06 4.900768832240e+06 0.000000000000e+00 2.993363401064e+03 0.000000000000e+00
5.100000001000e+03 8.333323966590e-08 5.203964346991e-04 2.832031250002e-02 4.267459174555e-05 4.890098946499e+06 4.902966363829e+06 0.000000000000e+00 3.611909927580e+03 0.000000000000e+00
5.400000001000e+03 8.333466435379e-08 5.024935029930e-04 3.320312500002e-02 3.996262079165e-05 4.890092193913e+06 4.905761329935e+06 0.000000000000e+00 4.398282805847e+03 0.000000000000e+00
5.700000001000e+03 8.333550135535e-08 4.911281002536e-04 4.980468750003e-02 3.725076560815e-05 4.890082297232e+06 4.909428943411e+06 0.000000000000e+00 5.430495112942e+03 0.000000000000e+00
6.000000001000e+03 8.331667090770e-08 4.813685752483e-04 6.542968750005e-02 3.463688146132e-05 4.890071020979e+06 4.914131086439e+06 0.000000000000e+00 6.755051847031e+03 0.000000000000e+00
6.300000001000e+03 8.333333320597e-08 5.823754916783e-04 1.269531250001e-02 5.104913357046e-05 4.890114415330e+06 4.897631247834e+06 0.000000000000e+00 2.109987635451e+03 0.000000000000e+00
6.600000001000e+03 8.333333502781e-08 5.445902769411e-04 1.855468750001e-02 4.627358769712e-05 4.890106570786e+06 4.900199111055e+06 0.000000000000e+00 2.832993112656e+03 0.000000000000e+00
6.900000001000e+03 8.333275987832e-08 5.126177324524e-04 3.027343750002e-02 4.153148129543e-05 4.890096156113e+06 4.904055491687e+06 0.000000000000e+00 3.918436135217e+03 0.000000000000e+00
7.200000001000e+03 8.333767938770e-08 4.902861310269e-04 5.273437500003e-02 3.693502928992e-05 4.890080797814e+06 4.909928366142e+06 0.000000000000e+00 5.570955551130e+03 0.000000000000e+00
7.500000001000e+03 8.333346733758e-08 4.748814563396e-04 7.714843750007e-02 3.252241069359e-05 4.890068739417e+06 4.919139239918e+06 0.000000000000e+00 8.160125672223e+03 0.000000000000e+00
7.800000001000e+03 8.333410307217e-08 4.614561105800e-04 9.277343750008e-02 2.810651550673e-05 4.890060474267e+06 4.935098877936e+06 0.000000000000e+00 1.264223952052e+04 0.000000000000e+00
8.100000001000e+03 8.326284365198e-08 4.550598749087e-04 1.044921875001e-01 2.401692870842e-05 4.890029874588e+06 4.962153920046e+06 0.000000000000e+00 2.026248143278e+04 0.000000000000e+00
8.400000001000e+03 8.333333318717e-08 5.823754914824e-04 1.269531250001e-02 5.104913305411e-05 4.890114415331e+06 4.897631248060e+06 0.000000000000e+00 2.109987699477e+03 0.000000000000e+00
8.700000001000e+03 8.333333581030e-08 5.386748812398e-04 2.050781250001e-02 4.543198533008e-05 4.890104972670e+06 4.900768843271e+06 0.000000000000e+00 2.993366474785e+03 0.000000000000e+00
9.000000001000e+03 8.333608855592e-08 5.024977764147e-04 3.320312500002e-02 3.996592485114e-05 4.890092174806e+06 4.905757692679e+06 0.000000000000e+00 4.397192052659e+03 0.000000000000e+00
9.300000001000e+03 8.331667090874e-08 4.813685752486e-04 6.542968750005e-02 3.463688146123e-05 4.890071020979e+06 4.914131086439e+06 0.000000000000e+00 6.755051847087e+03 0.000000000000e+00
9.600000001000e+03 8.333334755615e-08 4.647510934988e-04 8.789062500008e-02 2.966251906711e-05 4.890060365594e+06 4.928375996668e+06 0.000000000000e+00 1.075526078997e+04 0.000000000000e+00
9.900000001000e+03 8.337466531158e-08 4.563848079716e-04 1.015625000001e-01 2.434801397843e-05 4.890029605005e+06 4.959344205165e+06 0.000000000000e+00 1.944708038671e+04 0.000000000000e+00
1.020000000100e+04 8.507509086615e-08 4.432769260533e-04 1.210937500001e-01 2.085720906429e-05 4.890000110007e+06 5.002516317328e+06 0.000000000000e+00 3.093687578502e+04 0.000000000000e+00
1.050000000100e+04 8.333333316757e-08 5.823754914395e-04 1.269531250001e-02 5.104913294449e-05 4.890114415331e+06 4.897631248107e+06 0.000000000000e+00 2.109987713069e+03 0.000000000000e+00
1.080000000100e+04 8.333333503487e-08 5.445902769420e-04 1.855468750001e-02 4.627358769715e-05 4.890106570786e+06 4.900199111055e+06 0.000000000000e+00 2.832993112650e+03 0.000000000000e+00
1.110000000100e+04 8.333275988794e-08 5.126177324542e-04 3.027343750002e-02 4.153148129602e-05 4.890096156113e+06 4.904055491688e+06 0.000000000000e+00 3.918436135049e+03 0.000000000000e+00
1.140000000100e+04 8.333767938686e-08 4.902861310266e-04 5.273437500003e-02 3.693502928978e-05 4.890080797814e+06 4.909928366142e+06 0.000000000000e+00 5.570955551190e+03 0.000000000000e+00
1.170000000100e+04 8.333346734717e-08 4.748814563428e-04 7.714843750007e-02 3.252241069428e-05 4.890068739417e+06 4.919139239919e+06 0.000000000000e+00 8.160125671707e+03 0.000000000000e+00
1.200000000100e+04 8.333410306740e-08 4.614561105780e-04 9.277343750008e-02 2.810651550657e-05 4.890060474267e+06 4.935098877934e+06 0.000000000000e+00 1.264223952075e+04 0.000000000000e+00
1.230000000100e+04 8.326284365146e-08 4.550598749090e-04 1.044921875001e-01 2.401692870841e-05 4.890029874588e+06 4.962153920046e+06 0.000000000000e+00 2.026248143281e+04 0.000000000000e+00
1.260000000100e+04 8.333333317466e-08 5.823754914816e-04 1.269531250001e-02 5.104913305300e-05 4.890114415330e+06 4.897631248060e+06 0.000000000000e+00 2.109987699614e+03 0.000000000000e+00
1.290000000100e+04 8.333333355781e-08 5.603918223047e-04 1.757812500001e-02 4.822700962741e-05 4.890110134465e+06 4.899025291548e+06 0.000000000000e+00 2.502499706431e+03 0.000000000000e+00
1.320000000100e+04 8.333333519219e-08 5.386748846255e-04 2.050781250001e-02 4.543200088169e-05 4.890104972670e+06 4.900768832241e+06 0.000000000000e+00 2.993363400851e+03 0.000000000000e+00
1.350000000100e+04 8.333323967215e-08 5.203964347005e-04 2.832031250002e-02 4.267459174627e-05 4.890098946499e+06 4.902966363829e+06 0.000000000000e+00 3.611909927399e+03 0.000000000000e+00
1.380000000100e+04 8.333466434480e-08 5.024935029908e-04 3.320312500002e-02 3.996262079096e-05 4.890092193913e+06 4.905761329934e+06 0.000000000000e+00 4.398282806076e+03 0.000000000000e+00
1.410000000100e+04 8.333550135405e-08 4.911281002535e-04 4.980468750003e-02 3.725076560799e-05 4.890082297232e+06 4.909428943411e+06 0.000000000000e+00 5.430495113010e+03 0.000000000000e+00
1.440000000100e+04 8.331667090668e-08 4.813685752484e-04 6.542968750005e-02 3.463688146126e-05 4.890071020979e+06 4.914131086439e+06 0.000000000000e+00 6.755051847071e+03 0.000000000000e+00
1.470000000100e+04 8.333333320717e-08 5.823754916784e-04 1.269531250001e-02 5.104913357109e-05 4.890114415330e+06 4.897631247834e+06 0.000000000000e+00 2.109987635373e+03 0.000000000000e+00
1.500000000100e+04 8.333333333023e-08 5.754589199005e-04 1.367187500001e-02 5.019984567030e-05 4.890113178970e+06 4.898018014785e+06 0.000000000000e+00 2.218900820085e+03 0.000000000000e+00
1.530000000100e+04 8.333333335004e-08 5.686578512759e-04 1.367187500001e-02 4.941146386669e-05 4.890111968031e+06 4.898401248581e+06 0.000000000000e+00 2.326815108575e+03 0.000000000000e+00
1.560000000100e+04 8.333333338046e-08 5.632353872393e-04 1.757812500001e-02 4.856322544849e-05 4.890110708143e+06 4.898841978357e+06 0.000000000000e+00 2.450882355863e+03 0.000000000000e+00
1.590000000100e+04 8.333333343627e-08 5.561567959292e-04 1.757812500001e-02 4.772317763343e-05 4.890109253622e+06 4.899309764445e+06 0.000000000000e+00 2.582598988917e+03 0.000000000000e+00
1.620000000100e+04 8.333333350034e-08 5.500897332253e-04 1.855468750001e-02 4.694215288553e-05 4.890107836521e+06 4.899775265499e+06 0.000000000000e+00 2.713663704580e+03 0.000000000000e+00
1.650000000100e+04 8.333333369334e-08 5.432273775893e-04 1.855468750001e-02 4.610670648836e-05 4.890106247150e+06 4.900308772910e+06 0.000000000000e+00 2.863866271771e+03 0.000000000000e+00
1.680000000100e+04 8.333333330268e-08 5.823754918623e-04 1.269531250001e-02 5.104913366941e-05 4.890114415330e+06 4.897631247799e+06 0.000000000000e+00 2.109987623182e+03 0.000000000000e+00
1.710000000100e+04 8.333333333397e-08 5.823754919069e-04 1.269531250001e-02 5.104913364655e-05 4.890114415330e+06 4.897631247812e+06 0.000000000000e+00 2.109987626015e+03 0.000000000000e+00
1.740000000100e+04 8.333333333468e-08 5.823754919069e-04 1.269531250001e-02 5.104913364679e-05 4.890114415330e+06 4.897631247812e+06 0.000000000000e+00 2.109987625986e+03 0.000000000000e+00
1.770000000100e+04 8.333333332776e-08 5.823754919066e-04 1.269531250001e-02 5.104913364634e-05 4.890114415330e+06 4.897631247811e+06 0.000000000000e+00 2.109987626042e+03 0.000000000000e+00
1.800000000100e+04 8.333333333127e-08 5.823754919068e-04 1.269531250001e-02 5.104913364651e-05 4.890114415330e+06 4.897631247811e+06 0.000000000000e+00 2.109987626020e+03 0.000000000000e+00
1.830000000100e+04 8.333333333271e-08 5.823754919067e-04 1.269531250001e-02 5.104913364638e-05 4.890114415330e+06 4.897631247812e+06 0.000000000000e+00 2.109987626037e+03 0.000000000000e+00
1.860000000100e+04 8.333333333697e-08 5.823754919072e-04 1.269531250001e-02 5.104913364715e-05 4.890114415330e+06 4.897631247812e+06 0.000000000000e+00 2.109987625941e+03 0.000000000000e+00
