VARIABLES = "Time","Fluid_flux m3/s","Av._Ch_Ap","Contact_area","Hydraulic_Aperture","P2","P1","Si ppm","Pnorm","Chem Si ppm"
ZONE T=L4
0.000000000000e+00 0.000000000000e+00 0.000000000000e+00 0.000000000000e+00 0.000000000000e+00 0.000000000000e+00 0.000000000000e+00 0.000000000000e+00 0.000000000000e+00 0.000000000000e+00
1.000000000000e-06 8.333333335875e-08 5.823525309858e-04 1.269531250001e-02 5.112238577898e-05 4.890114077779e+06 4.897598644432e+06 0.000000000000e+00 2.100930552724e+03 0.000000000000e+00
3.000000010000e+02 8.333333333591e-08 5.823525309517e-04 1.269531250001e-02 5.112238582294e-05 4.890114077779e+06 4.897598644410e+06 0.000000000000e+00 2.100930547304e+03 0.000000000000e+00
6.000000010000e+02 8.333333333341e-08 5.823525309514e-04 1.269531250001e-02 5.112238582281e-05 4.890114077779e+06 4.897598644410e+06 0.000000000000e+00 2.100930547321e+03 0.000000000000e+00
9.000000010000e+02 8.333333333429e-08 5.823525309515e-04 1.269531250001e-02 5.112238582307e-05 4.890114077779e+06 4.897598644410e+06 0.000000000000e+00 2.100930547288e+03 0.000000000000e+00
1.200000001000e+03 8.333333334073e-08 5.823525309521e-04 1.269531250001e-02 5.112238582358e-05 4.890114077779e+06 4.897598644411e+06 0.000000000000e+00 2.100930547224e+03 0.000000000000e+00
1.500000001000e+03 8.333333333247e-08 5.823525309514e-04 1.269531250001e-02 5.112238582283e-05 4.890114077779e+06 4.897598644410e+06 0.000000000000e+00 2.100930547318e+03 0.000000000000e+00
1.800000001000e+03 8.333333333566e-08 5.823525309518e-04 1.269531250001e-02 5.112238582330e-05 4.890114077779e+06 4.897598644410e+06 0.000000000000e+00 2.100930547259e+03 0.000000000000e+00
2.100000001000e+03 8.333333333477e-08 5.823525309516e-04 1.269531250001e-02 5.112238582300e-05 4.890114077779e+06 4.897598644410e+06 0.000000000000e+00 2.100930547296e+03 0.000000000000e+00
2.400000001000e+03 8.333333333470e-08 5.754272155374e-04 1.367187500001e-02 5.027530043225e-05 4.890112820865e+06 4.897982118588e+06 0.000000000000e+00 2.208925217061e+03 0.000000000000e+00
2.700000001000e+03 8.333333334379e-08 5.686222338127e-04 1.367187500001e-02 4.948704460790e-05 4.890111588454e+06 4.898362946739e+06 0.000000000000e+00 2.316170264640e+03 0.000000000000e+00
3.000000001000e+03 8.333333337675e-08 5.631897150345e-04 1.757812500001e-02 4.864273844971e-05 4.890110204747e+06 4.898798727659e+06 0.000000000000e+00 2.438883115736e+03 0.000000000000e+00
3.300000001000e+03 8.333333343689e-08 5.561102706094e-04 1.757812500001e-02 4.780376654843e-05 4.890108717007e+06 4.899262774801e+06 0.000000000000e+00 2.569559544965e+03 0.000000000000e+00
3.600000001000e+03 8.333333348850e-08 5.500448158302e-04 1.855468750001e-02 4.702434990226e-05 4.890107267009e+06 4.899724089503e+06 0.000000000000e+00 2.699458379318e+03 0.000000000000e+00
3.900000001000e+03 8.333333366434e-08 5.431842115131e-04 1.855468750001e-02 4.619055163487e-05 4.890105640158e+06 4.900252707791e+06 0.000000000000e+00 2.848299082774e+03 0.000000000000e+00
4.200000001000e+03 8.333333329586e-08 5.823525309075e-04 1.269531250001e-02 5.112238584613e-05 4.890114077779e+06 4.897598644397e+06 0.000000000000e+00 2.100930544445e+03 0.000000000000e+00
4.500000001000e+03 8.333333353434e-08 5.603449464262e-04 1.757812500001e-02 4.830685675174e-05 4.890109618029e+06 4.898980640152e+06 0.000000000000e+00 2.490110949260e+03 0.000000000000e+00
4.800000001000e+03 8.333333434044e-08 5.386248964089e-04 2.050781250001e-02 4.552440373765e-05 4.890104284747e+06 4.900703341228e+06 0.000000000000e+00 2.975173094105e+03 0.000000000000e+00
5.100000001000e+03 8.333333972434e-08 5.203337179942e-04 2.832031250002e-02 4.278242824895e-05 4.890098054405e+06 4.902868432078e+06 0.000000000000e+00 3.584666396321e+03 0.000000000000e+00
5.400000001000e+03 8.333484959117e-08 5.023926660821e-04 3.320312500002e-02 4.009389018508e-05 4.890090933601e+06 4.905606702858e+06 0.000000000000e+00 4.355223501457e+03 0.000000000000e+00
5.700000001000e+03 8.333405412483e-08 4.910992609043e-04 5.078125000003e-02 3.746113572103e-05 4.890083498556e+06 4.909105707019e+06 0.000000000000e+00 5.339519993101e+03 0.000000000000e+00
6.000000001000e+03 8.333476897925e-08 4.811170060305e-04 6.738281250006e-02 3.495059065106e-05 4.890078377400e+06 4.913501453166e+06 0.000000000000e+00 6.574783824346e+03 0.000000000000e+00
6.300000001000e+03 8.333333320920e-08 5.823525307356e-04 1.269531250001e-02 5.112238577295e-05 4.890114077779e+06 4.897598644421e+06 0.000000000000e+00 2.100930553467e+03 0.000000000000e+00
6.600000001000e+03 8.333333485412e-08 5.445467118156e-04 1.855468750001e-02 4.635708375556e-05 4.890105971471e+06 4.900144075350e+06 0.000000000000e+00 2.817712731899e+03 0.000000000000e+00
6.900000001000e+03 8.333286974277e-08 5.125599407179e-04 3.027343750002e-02 4.164750673401e-05 4.890095178378e+06 4.903938189337e+06 0.000000000000e+00 3.885778270923e+03 0.000000000000e+00
7.200000001000e+03 8.333310000648e-08 4.905685187174e-04 5.468750000004e-02 3.714647557298e-05 4.890082677176e+06 4.909592168243e+06 0.000000000000e+00 5.476362564160e+03 0.000000000000e+00
7.500000001000e+03 8.333404262590e-08 4.733328509932e-04 7.910156250007e-02 3.298219076667e-05 4.890077885231e+06 4.917949696889e+06 0.000000000000e+00 7.823598212539e+03 0.000000000000e+00
7.800000001000e+03 8.371489599876e-08 4.599006923926e-04 1.083984375001e-01 2.905913088637e-05 4.890082374946e+06 4.931021270756e+06 0.000000000000e+00 1.143924004324e+04 0.000000000000e+00
8.100000001000e+03 8.334359385153e-08 4.486259202467e-04 1.406250000002e-01 2.616858142773e-05 4.890090262953e+06 4.945900379301e+06 0.000000000000e+00 1.566406565589e+04 0.000000000000e+00
8.400000001000e+03 8.333333315234e-08 5.823525305868e-04 1.269531250001e-02 5.112238559240e-05 4.890114077779e+06 4.897598644495e+06 0.000000000000e+00 2.100930575726e+03 0.000000000000e+00
8.700000001000e+03 8.333333428566e-08 5.386248915611e-04 2.050781250001e-02 4.552438889940e-05 4.890104284748e+06 4.900703351585e+06 0.000000000000e+00 2.975176003296e+03 0.000000000000e+00
9.000000001000e+03 8.333635580775e-08 5.023977382175e-04 3.320312500002e-02 4.009669876840e-05 4.890090926005e+06 4.905603715450e+06 0.000000000000e+00 4.354308377392e+03 0.000000000000e+00
9.300000001000e+03 8.333855342632e-08 4.811200914009e-04 6.738281250006e-02 3.496174924593e-05 4.890078362182e+06 4.913480080255e+06 0.000000000000e+00 6.568490494857e+03 0.000000000000e+00
9.600000001000e+03 8.333050856505e-08 4.637262479566e-04 9.765625000010e-02 3.031268288937e-05 4.890080061629e+06 4.925981524880e+06 0.000000000000e+00 1.007794323765e+04 0.000000000000e+00
9.900000001000e+03 8.333196069499e-08 4.512526127704e-04 1.396484375001e-01 2.648318630082e-05 4.890089318478e+06 4.943926478148e+06 0.000000000000e+00 1.511243095411e+04 0.000000000000e+00
1.020000000100e+04 8.333332607158e-08 4.420190901567e-04 1.923828125002e-01 2.332233826853e-05 4.890104354560e+06 4.968932932478e+06 0.000000000000e+00 2.212731744282e+04 0.000000000000e+00
1.050000000100e+04 8.333333313030e-08 5.823525305524e-04 1.269531250001e-02 5.112238559981e-05 4.890114077779e+06 4.897598644490e+06 0.000000000000e+00 2.100930574814e+03 0.000000000000e+00
1.080000000100e+04 8.333333484897e-08 5.445467118145e-04 1.855468750001e-02 4.635708375505e-05 4.890105971471e+06 4.900144075350e+06 0.000000000000e+00 2.817712731992e+03 0.000000000000e+00
1.110000000100e+04 8.333286974287e-08 5.125599407180e-04 3.027343750002e-02 4.164750673396e-05 4.890095178378e+06 4.903938189338e+06 0.000000000000e+00 3.885778270936e+03 0.000000000000e+00
1.140000000100e+04 8.333310000410e-08 4.905685187164e-04 5.468750000004e-02 3.714647557304e-05 4.890082677176e+06 4.909592168243e+06 0.000000000000e+00 5.476362564133e+03 0.000000000000e+00
1.170000000100e+04 8.333404262230e-08 4.733328509922e-04 7.910156250007e-02 3.298219076629e-05 4.890077885231e+06 4.917949696889e+06 0.000000000000e+00 7.823598212806e+03 0.000000000000e+00
1.200000000100e+04 8.371489600000e-08 4.599006923935e-04 1.083984375001e-01 2.905913088649e-05 4.890082374946e+06 4.931021270756e+06 0.000000000000e+00 1.143924004310e+04 0.000000000000e+00
1.230000000100e+04 8.334359385372e-08 4.486259202470e-04 1.406250000002e-01 2.616858142776e-05 4.890090262953e+06 4.945900379303e+06 0.000000000000e+00 1.566406565584e+04 0.000000000000e+00
1.260000000100e+04 8.333333314912e-08 5.823525305865e-04 1.269531250001e-02 5.112238559192e-05 4.890114077779e+06 4.897598644495e+06 0.000000000000e+00 2.100930575787e+03 0.000000000000e+00
1.290000000100e+04 8.333333354499e-08 5.603449464276e-04 1.757812500001e-02 4.830685675258e-05 4.890109618029e+06 4.898980640153e+06 0.000000000000e+00 2.490110949130e+03 0.000000000000e+00
1.320000000100e+04 8.333333434316e-08 5.386248964090e-04 2.050781250001e-02 4.552440373813e-05 4.890104284747e+06 4.900703341228e+06 0.000000000000e+00 2.975173094012e+03 0.000000000000e+00
1.350000000100e+04 8.333333972493e-08 5.203337179936e-04 2.832031250002e-02 4.278242824819e-05 4.890098054405e+06 4.902868432078e+06 0.000000000000e+00 3.584666396511e+03 0.000000000000e+00
1.380000000100e+04 8.333484958853e-08 5.023926660813e-04 3.320312500002e-02 4.009389018504e-05 4.890090933601e+06 4.905606702858e+06 0.000000000000e+00 4.355223501468e+03 0.000000000000e+00
1.410000000100e+04 8.333405412381e-08 4.910992609038e-04 5.078125000003e-02 3.746113572091e-05 4.890083498556e+06 4.909105707019e+06 0.000000000000e+00 5.339519993155e+03 0.000000000000e+00
1.440000000100e+04 8.333476897928e-08 4.811170060299e-04 6.738281250006e-02 3.495059065102e-05 4.890078377400e+06 4.913501453166e+06 0.000000000000e+00 6.574783824365e+03 0.000000000000e+00
1.470000000100e+04 8.333333321525e-08 5.823525307360e-04 1.269531250001e-02 5.112238577312e-05 4.890114077779e+06 4.897598644422e+06 0.000000000000e+00 2.100930553446e+03 0.000000000000e+00
1.500000000100e+04 8.333333335060e-08 5.754272155386e-04 1.367187500001e-02 5.027530043325e-05 4.890112820865e+06 4.897982118589e+06 0.000000000000e+00 2.208925216929e+03 0.000000000000e+00
1.530000000100e+04 8.333333335398e-08 5.686222338139e-04 1.367187500001e-02 4.948704460905e-05 4.890111588454e+06 4.898362946740e+06 0.000000000000e+00 2.316170264478e+03 0.000000000000e+00
1.560000000100e+04 8.333333336908e-08 5.631897150341e-04 1.757812500001e-02 4.864273844934e-05 4.890110204747e+06 4.898798727658e+06 0.000000000000e+00 2.438883115791e+03 0.000000000000e+00
1.590000000100e+04 8.333333343901e-08 5.561102706092e-04 1.757812500001e-02 4.780376654844e-05 4.890108717007e+06 4.899262774801e+06 0.000000000000e+00 2.569559544964e+03 0.000000000000e+00
1.620000000100e+04 8.333333349604e-08 5.500448158306e-04 1.855468750001e-02 4.702434990291e-05 4.890107267009e+06 4.899724089504e+06 0.000000000000e+00 2.699458379207e+03 0.000000000000e+00
1.650000000100e+04 8.333333367149e-08 5.431842115149e-04 1.855468750001e-02 4.619055163614e-05 4.890105640158e+06 4.900252707791e+06 0.000000000000e+00 2.848299082538e+03 0.000000000000e+00
1.680000000100e+04 8.333333329091e-08 5.823525309070e-04 1.269531250001e-02 5.112238584564e-05 4.890114077779e+06 4.897598644396e+06 0.000000000000e+00 2.100930544505e+03 0.000000000000e+00
1.710000000100e+04 8.333333334227e-08 5.823525309523e-04 1.269531250001e-02 5.112238582377e-05 4.890114077779e+06 4.897598644411e+06 0.000000000000e+00 2.100930547202e+03 0.000000000000e+00
1.740000000100e+04 8.333333332513e-08 5.823525309506e-04 1.269531250001e-02 5.112238582205e-05 4.890114077779e+06 4.897598644410e+06 0.000000000000e+00 2.100930547414e+03 0.000000000000e+00
1.770000000100e+04 8.333333333988e-08 5.823525309521e-04 1.269531250001e-02 5.112238582359e-05 4.890114077779e+06 4.897598644411e+06 0.000000000000e+00 2.100930547224e+03 0.000000000000e+00
1.800000000100e+04 8.333333333255e-08 5.823525309514e-04 1.269531250001e-02 5.112238582265e-05 4.890114077779e+06 4.897598644410e+06 0.000000000000e+00 2.100930547339e+03 0.000000000000e+00
1.830000000100e+04 8.333333334190e-08 5.823525309521e-04 1.269531250001e-02 5.112238582344e-05 4.890114077779e+06 4.897598644411e+06 0.000000000000e+00 2.100930547242e+03 0.000000000000e+00
1.860000000100e+04 8.333333333830e-08 5.823525309519e-04 1.269531250001e-02 5.112238582342e-05 4.890114077779e+06 4.897598644411e+06 0.000000000000e+00 2.100930547245e+03 0.000000000000e+00
