 TITLE = "Profiles along polylines"
 VARIABLES = "DIST" "PRESSURE1" 
 ZONE T="TIME=0.000000000000e+00"
0.000000000000e+00 0.000000000000e+00 
1.999999999994e+00 0.000000000000e+00 
3.999999999989e+00 0.000000000000e+00 
5.999999999983e+00 0.000000000000e+00 
7.999999999978e+00 0.000000000000e+00 
9.999999999972e+00 0.000000000000e+00 
1.199999999997e+01 0.000000000000e+00 
1.399999999996e+01 0.000000000000e+00 
1.599999999996e+01 0.000000000000e+00 
1.799999999995e+01 0.000000000000e+00 
1.999999999994e+01 0.000000000000e+00 
2.199999999994e+01 0.000000000000e+00 
2.399999999993e+01 0.000000000000e+00 
2.599999999993e+01 0.000000000000e+00 
2.799999999992e+01 0.000000000000e+00 
2.999999999992e+01 0.000000000000e+00 
3.199999999991e+01 0.000000000000e+00 
3.399999999992e+01 0.000000000000e+00 
3.599999999992e+01 0.000000000000e+00 
3.799999999993e+01 0.000000000000e+00 
3.999999999993e+01 0.000000000000e+00 
4.199999999994e+01 0.000000000000e+00 
4.399999999994e+01 0.000000000000e+00 
4.599999999995e+01 0.000000000000e+00 
4.799999999996e+01 0.000000000000e+00 
4.999999999996e+01 0.000000000000e+00 
5.199999999997e+01 0.000000000000e+00 
5.399999999997e+01 0.000000000000e+00 
5.599999999998e+01 0.000000000000e+00 
5.799999999998e+01 0.000000000000e+00 
5.999999999999e+01 0.000000000000e+00 
6.199999999999e+01 0.000000000000e+00 
6.400000000000e+01 0.000000000000e+00 
 TITLE = "Profiles along polylines"
 VARIABLES = "DIST" "PRESSURE1" 
 ZONE T="TIME=1.000000000000e-06"
0.000000000000e+00 4.897880331330e+06 
1.999999999994e+00 4.897895843564e+06 
3.999999999989e+00 4.897927851313e+06 
5.999999999983e+00 4.897967203251e+06 
7.999999999978e+00 4.897979879671e+06 
9.999999999972e+00 4.897952409152e+06 
1.199999999997e+01 4.897904803720e+06 
1.399999999996e+01 4.897842378328e+06 
1.599999999996e+01 4.897777143166e+06 
1.799999999995e+01 4.897727049336e+06 
1.999999999994e+01 4.897688547769e+06 
2.199999999994e+01 4.897680969971e+06 
2.399999999993e+01 4.897698303540e+06 
2.599999999993e+01 4.897696124091e+06 
2.799999999992e+01 4.897661794444e+06 
2.999999999992e+01 4.897645258956e+06 
3.199999999991e+01 4.897610084134e+06 
3.399999999992e+01 4.897586275781e+06 
3.599999999992e+01 4.897531335264e+06 
3.799999999993e+01 4.897469171363e+06 
3.999999999993e+01 4.897390112281e+06 
4.199999999994e+01 4.897240620041e+06 
4.399999999994e+01 4.897217234620e+06 
4.599999999995e+01 4.897288149163e+06 
4.799999999996e+01 4.897383935584e+06 
4.999999999996e+01 4.897413686231e+06 
5.199999999997e+01 4.897485699426e+06 
5.399999999997e+01 4.897547115736e+06 
5.599999999998e+01 4.897610672235e+06 
5.799999999998e+01 4.897656760670e+06 
5.999999999999e+01 4.897702852568e+06 
6.199999999999e+01 4.897741162644e+06 
6.400000000000e+01 4.897761963544e+06 
 ZONE T="TIME=3.000000010000e+02"
0.000000000000e+00 4.898154853737e+06 
1.999999999994e+00 4.898100463894e+06 
3.999999999989e+00 4.898059773198e+06 
5.999999999983e+00 4.898085666805e+06 
7.999999999978e+00 4.898082726069e+06 
9.999999999972e+00 4.898037392733e+06 
1.199999999997e+01 4.897973810393e+06 
1.399999999996e+01 4.897897615282e+06 
1.599999999996e+01 4.897822052822e+06 
1.799999999995e+01 4.897765602499e+06 
1.999999999994e+01 4.897722836098e+06 
2.199999999994e+01 4.897712720351e+06 
2.399999999993e+01 4.897727821546e+06 
2.599999999993e+01 4.897723122717e+06 
2.799999999992e+01 4.897686389062e+06 
2.999999999992e+01 4.897668276327e+06 
3.199999999991e+01 4.897631247812e+06 
3.399999999992e+01 4.897606219772e+06 
3.599999999992e+01 4.897549623281e+06 
3.799999999993e+01 4.897486292702e+06 
3.999999999993e+01 4.897405936966e+06 
4.199999999994e+01 4.897255009240e+06 
4.399999999994e+01 4.897231243549e+06 
4.599999999995e+01 4.897302019088e+06 
4.799999999996e+01 4.897397557149e+06 
4.999999999996e+01 4.897427147428e+06 
5.199999999997e+01 4.897499014831e+06 
5.399999999997e+01 4.897560314307e+06 
5.599999999998e+01 4.897623759045e+06 
5.799999999998e+01 4.897669766532e+06 
5.999999999999e+01 4.897715803260e+06 
6.199999999999e+01 4.897754085804e+06 
6.400000000000e+01 4.897774881245e+06 
 ZONE T="TIME=6.000000010000e+02"
0.000000000000e+00 4.898154853737e+06 
1.999999999994e+00 4.898100463893e+06 
3.999999999989e+00 4.898059773198e+06 
5.999999999983e+00 4.898085666805e+06 
7.999999999978e+00 4.898082726068e+06 
9.999999999972e+00 4.898037392732e+06 
1.199999999997e+01 4.897973810392e+06 
1.399999999996e+01 4.897897615281e+06 
1.599999999996e+01 4.897822052822e+06 
1.799999999995e+01 4.897765602499e+06 
1.999999999994e+01 4.897722836097e+06 
2.199999999994e+01 4.897712720351e+06 
2.399999999993e+01 4.897727821545e+06 
2.599999999993e+01 4.897723122717e+06 
2.799999999992e+01 4.897686389062e+06 
2.999999999992e+01 4.897668276326e+06 
3.199999999991e+01 4.897631247811e+06 
3.399999999992e+01 4.897606219771e+06 
3.599999999992e+01 4.897549623281e+06 
3.799999999993e+01 4.897486292701e+06 
3.999999999993e+01 4.897405936966e+06 
4.199999999994e+01 4.897255009239e+06 
4.399999999994e+01 4.897231243549e+06 
4.599999999995e+01 4.897302019088e+06 
4.799999999996e+01 4.897397557148e+06 
4.999999999996e+01 4.897427147427e+06 
5.199999999997e+01 4.897499014831e+06 
5.399999999997e+01 4.897560314307e+06 
5.599999999998e+01 4.897623759045e+06 
5.799999999998e+01 4.897669766532e+06 
5.999999999999e+01 4.897715803259e+06 
6.199999999999e+01 4.897754085803e+06 
6.400000000000e+01 4.897774881244e+06 
 ZONE T="TIME=9.000000010000e+02"
0.000000000000e+00 4.898154853737e+06 
1.999999999994e+00 4.898100463893e+06 
3.999999999989e+00 4.898059773198e+06 
5.999999999983e+00 4.898085666805e+06 
7.999999999978e+00 4.898082726068e+06 
9.999999999972e+00 4.898037392732e+06 
1.199999999997e+01 4.897973810392e+06 
1.399999999996e+01 4.897897615281e+06 
1.599999999996e+01 4.897822052822e+06 
1.799999999995e+01 4.897765602499e+06 
1.999999999994e+01 4.897722836097e+06 
2.199999999994e+01 4.897712720351e+06 
2.399999999993e+01 4.897727821545e+06 
2.599999999993e+01 4.897723122717e+06 
2.799999999992e+01 4.897686389062e+06 
2.999999999992e+01 4.897668276326e+06 
3.199999999991e+01 4.897631247812e+06 
3.399999999992e+01 4.897606219772e+06 
3.599999999992e+01 4.897549623281e+06 
3.799999999993e+01 4.897486292701e+06 
3.999999999993e+01 4.897405936966e+06 
4.199999999994e+01 4.897255009240e+06 
4.399999999994e+01 4.897231243549e+06 
4.599999999995e+01 4.897302019088e+06 
4.799999999996e+01 4.897397557148e+06 
4.999999999996e+01 4.897427147427e+06 
5.199999999997e+01 4.897499014831e+06 
5.399999999997e+01 4.897560314307e+06 
5.599999999998e+01 4.897623759045e+06 
5.799999999998e+01 4.897669766532e+06 
5.999999999999e+01 4.897715803259e+06 
6.199999999999e+01 4.897754085803e+06 
6.400000000000e+01 4.897774881244e+06 
 ZONE T="TIME=1.200000001000e+03"
0.000000000000e+00 4.898154853737e+06 
1.999999999994e+00 4.898100463893e+06 
3.999999999989e+00 4.898059773198e+06 
5.999999999983e+00 4.898085666805e+06 
7.999999999978e+00 4.898082726068e+06 
9.999999999972e+00 4.898037392732e+06 
1.199999999997e+01 4.897973810392e+06 
1.399999999996e+01 4.897897615281e+06 
1.599999999996e+01 4.897822052822e+06 
1.799999999995e+01 4.897765602499e+06 
1.999999999994e+01 4.897722836097e+06 
2.199999999994e+01 4.897712720351e+06 
2.399999999993e+01 4.897727821545e+06 
2.599999999993e+01 4.897723122717e+06 
2.799999999992e+01 4.897686389062e+06 
2.999999999992e+01 4.897668276326e+06 
3.199999999991e+01 4.897631247811e+06 
3.399999999992e+01 4.897606219772e+06 
3.599999999992e+01 4.897549623281e+06 
3.799999999993e+01 4.897486292701e+06 
3.999999999993e+01 4.897405936966e+06 
4.199999999994e+01 4.897255009239e+06 
4.399999999994e+01 4.897231243549e+06 
4.599999999995e+01 4.897302019088e+06 
4.799999999996e+01 4.897397557148e+06 
4.999999999996e+01 4.897427147427e+06 
5.199999999997e+01 4.897499014831e+06 
5.399999999997e+01 4.897560314307e+06 
5.599999999998e+01 4.897623759045e+06 
5.799999999998e+01 4.897669766532e+06 
5.999999999999e+01 4.897715803259e+06 
6.199999999999e+01 4.897754085803e+06 
6.400000000000e+01 4.897774881244e+06 
 ZONE T="TIME=1.500000001000e+03"
0.000000000000e+00 4.898154853737e+06 
1.999999999994e+00 4.898100463894e+06 
3.999999999989e+00 4.898059773198e+06 
5.999999999983e+00 4.898085666805e+06 
7.999999999978e+00 4.898082726069e+06 
9.999999999972e+00 4.898037392733e+06 
1.199999999997e+01 4.897973810393e+06 
1.399999999996e+01 4.897897615282e+06 
1.599999999996e+01 4.897822052822e+06 
1.799999999995e+01 4.897765602499e+06 
1.999999999994e+01 4.897722836098e+06 
2.199999999994e+01 4.897712720351e+06 
2.399999999993e+01 4.897727821545e+06 
2.599999999993e+01 4.897723122717e+06 
2.799999999992e+01 4.897686389062e+06 
2.999999999992e+01 4.897668276327e+06 
3.199999999991e+01 4.897631247812e+06 
3.399999999992e+01 4.897606219772e+06 
3.599999999992e+01 4.897549623281e+06 
3.799999999993e+01 4.897486292702e+06 
3.999999999993e+01 4.897405936966e+06 
4.199999999994e+01 4.897255009240e+06 
4.399999999994e+01 4.897231243549e+06 
4.599999999995e+01 4.897302019088e+06 
4.799999999996e+01 4.897397557149e+06 
4.999999999996e+01 4.897427147428e+06 
5.199999999997e+01 4.897499014831e+06 
5.399999999997e+01 4.897560314307e+06 
5.599999999998e+01 4.897623759045e+06 
5.799999999998e+01 4.897669766532e+06 
5.999999999999e+01 4.897715803260e+06 
6.199999999999e+01 4.897754085803e+06 
6.400000000000e+01 4.897774881245e+06 
 ZONE T="TIME=1.800000001000e+03"
0.000000000000e+00 4.898154853737e+06 
1.999999999994e+00 4.898100463893e+06 
3.999999999989e+00 4.898059773198e+06 
5.999999999983e+00 4.898085666805e+06 
7.999999999978e+00 4.898082726068e+06 
9.999999999972e+00 4.898037392732e+06 
1.199999999997e+01 4.897973810392e+06 
1.399999999996e+01 4.897897615281e+06 
1.599999999996e+01 4.897822052822e+06 
1.799999999995e+01 4.897765602499e+06 
1.999999999994e+01 4.897722836097e+06 
2.199999999994e+01 4.897712720351e+06 
2.399999999993e+01 4.897727821545e+06 
2.599999999993e+01 4.897723122717e+06 
2.799999999992e+01 4.897686389062e+06 
2.999999999992e+01 4.897668276326e+06 
3.199999999991e+01 4.897631247811e+06 
3.399999999992e+01 4.897606219772e+06 
3.599999999992e+01 4.897549623281e+06 
3.799999999993e+01 4.897486292701e+06 
3.999999999993e+01 4.897405936966e+06 
4.199999999994e+01 4.897255009239e+06 
4.399999999994e+01 4.897231243549e+06 
4.599999999995e+01 4.897302019088e+06 
4.799999999996e+01 4.897397557148e+06 
4.999999999996e+01 4.897427147427e+06 
5.199999999997e+01 4.897499014831e+06 
5.399999999997e+01 4.897560314307e+06 
5.599999999998e+01 4.897623759045e+06 
5.799999999998e+01 4.897669766532e+06 
5.999999999999e+01 4.897715803259e+06 
6.199999999999e+01 4.897754085803e+06 
6.400000000000e+01 4.897774881244e+06 
 ZONE T="TIME=2.100000001000e+03"
0.000000000000e+00 4.898154853737e+06 
1.999999999994e+00 4.898100463894e+06 
3.999999999989e+00 4.898059773198e+06 
5.999999999983e+00 4.898085666805e+06 
7.999999999978e+00 4.898082726068e+06 
9.999999999972e+00 4.898037392732e+06 
1.199999999997e+01 4.897973810393e+06 
1.399999999996e+01 4.897897615282e+06 
1.599999999996e+01 4.897822052822e+06 
1.799999999995e+01 4.897765602499e+06 
1.999999999994e+01 4.897722836097e+06 
2.199999999994e+01 4.897712720351e+06 
2.399999999993e+01 4.897727821545e+06 
2.599999999993e+01 4.897723122717e+06 
2.799999999992e+01 4.897686389062e+06 
2.999999999992e+01 4.897668276326e+06 
3.199999999991e+01 4.897631247812e+06 
3.399999999992e+01 4.897606219772e+06 
3.599999999992e+01 4.897549623281e+06 
3.799999999993e+01 4.897486292701e+06 
3.999999999993e+01 4.897405936966e+06 
4.199999999994e+01 4.897255009240e+06 
4.399999999994e+01 4.897231243549e+06 
4.599999999995e+01 4.897302019088e+06 
4.799999999996e+01 4.897397557148e+06 
4.999999999996e+01 4.897427147427e+06 
5.199999999997e+01 4.897499014831e+06 
5.399999999997e+01 4.897560314307e+06 
5.599999999998e+01 4.897623759045e+06 
5.799999999998e+01 4.897669766532e+06 
5.999999999999e+01 4.897715803260e+06 
6.199999999999e+01 4.897754085803e+06 
6.400000000000e+01 4.897774881244e+06 
 ZONE T="TIME=2.400000001000e+03"
0.000000000000e+00 4.898550780397e+06 
1.999999999994e+00 4.898496474111e+06 
3.999999999989e+00 4.898455686392e+06 
5.999999999983e+00 4.898481642840e+06 
7.999999999978e+00 4.898478346536e+06 
9.999999999972e+00 4.898432424088e+06 
1.199999999997e+01 4.898367950726e+06 
1.399999999996e+01 4.898290534189e+06 
1.599999999996e+01 4.898213603884e+06 
1.799999999995e+01 4.898156041488e+06 
1.999999999994e+01 4.898112394362e+06 
2.199999999994e+01 4.898101937978e+06 
2.399999999993e+01 4.898116983573e+06 
2.599999999993e+01 4.898111904990e+06 
2.799999999992e+01 4.898074484012e+06 
2.999999999992e+01 4.898055843210e+06 
3.199999999991e+01 4.898018014786e+06 
3.399999999992e+01 4.897992182172e+06 
3.599999999992e+01 4.897934616611e+06 
3.799999999993e+01 4.897870196311e+06 
3.999999999993e+01 4.897788517896e+06 
4.199999999994e+01 4.897635020586e+06 
4.399999999994e+01 4.897610752026e+06 
4.599999999995e+01 4.897682821037e+06 
4.799999999996e+01 4.897779498810e+06 
4.999999999996e+01 4.897809693710e+06 
5.199999999997e+01 4.897882620532e+06 
5.399999999997e+01 4.897944800663e+06 
5.599999999998e+01 4.898009056848e+06 
5.799999999998e+01 4.898055677557e+06 
5.999999999999e+01 4.898102235369e+06 
6.199999999999e+01 4.898140871638e+06 
6.400000000000e+01 4.898161793244e+06 
 ZONE T="TIME=2.700000001000e+03"
0.000000000000e+00 4.898942482167e+06 
1.999999999994e+00 4.898888254758e+06 
3.999999999989e+00 4.898847378589e+06 
5.999999999983e+00 4.898873388112e+06 
7.999999999978e+00 4.898869751680e+06 
9.999999999972e+00 4.898823273534e+06 
1.199999999997e+01 4.898757960656e+06 
1.399999999996e+01 4.898679391996e+06 
1.599999999996e+01 4.898601169563e+06 
1.799999999995e+01 4.898542558319e+06 
1.999999999994e+01 4.898498084339e+06 
2.199999999994e+01 4.898487319063e+06 
2.399999999993e+01 4.898502339621e+06 
2.599999999993e+01 4.898496936906e+06 
2.799999999992e+01 4.898458901703e+06 
2.999999999992e+01 4.898439790267e+06 
3.199999999991e+01 4.898401248582e+06 
3.399999999992e+01 4.898374682664e+06 
3.599999999992e+01 4.898316253474e+06 
3.799999999993e+01 4.898250838998e+06 
3.999999999993e+01 4.898167957985e+06 
4.199999999994e+01 4.898012085277e+06 
4.399999999994e+01 4.897987353525e+06 
4.599999999995e+01 4.898060654464e+06 
4.799999999996e+01 4.898158415575e+06 
4.999999999996e+01 4.898189192755e+06 
5.199999999997e+01 4.898263127019e+06 
5.399999999997e+01 4.898326144473e+06 
5.599999999998e+01 4.898391170490e+06 
5.799999999998e+01 4.898438373992e+06 
5.999999999999e+01 4.898485424781e+06 
6.199999999999e+01 4.898524393796e+06 
6.400000000000e+01 4.898545432887e+06 
 ZONE T="TIME=3.000000001000e+03"
0.000000000000e+00 4.899392464235e+06 
1.999999999994e+00 4.899338323403e+06 
3.999999999989e+00 4.899297354617e+06 
5.999999999983e+00 4.899323410602e+06 
7.999999999978e+00 4.899319396564e+06 
9.999999999972e+00 4.899272313366e+06 
1.199999999997e+01 4.899206089037e+06 
1.399999999996e+01 4.899126268095e+06 
1.599999999996e+01 4.899046637487e+06 
1.799999999995e+01 4.898986879912e+06 
1.999999999994e+01 4.898941501504e+06 
2.199999999994e+01 4.898930396767e+06 
2.399999999993e+01 4.898945386050e+06 
2.599999999993e+01 4.898939627302e+06 
2.799999999992e+01 4.898900923450e+06 
2.999999999992e+01 4.898881296399e+06 
3.199999999991e+01 4.898841978357e+06 
3.399999999992e+01 4.898814609865e+06 
3.599999999992e+01 4.898755244396e+06 
3.799999999993e+01 4.898688750502e+06 
3.999999999993e+01 4.898604566486e+06 
4.199999999994e+01 4.898446120540e+06 
4.399999999994e+01 4.898420884622e+06 
4.599999999995e+01 4.898495524962e+06 
4.799999999996e+01 4.898594453257e+06 
4.999999999996e+01 4.898625865298e+06 
5.199999999997e+01 4.898700889632e+06 
5.399999999997e+01 4.898764813424e+06 
5.599999999998e+01 4.898830670412e+06 
5.799999999998e+01 4.898878504368e+06 
5.999999999999e+01 4.898926086951e+06 
6.199999999999e+01 4.898965413629e+06 
6.400000000000e+01 4.898986578056e+06 
 ZONE T="TIME=3.300000001000e+03"
0.000000000000e+00 4.899869589945e+06 
1.999999999994e+00 4.899815536405e+06 
3.999999999989e+00 4.899774477952e+06 
5.999999999983e+00 4.899800573533e+06 
7.999999999978e+00 4.899796173523e+06 
9.999999999972e+00 4.899748481046e+06 
1.199999999997e+01 4.899681339646e+06 
1.399999999996e+01 4.899600256183e+06 
1.599999999996e+01 4.899519202087e+06 
1.799999999995e+01 4.899458283861e+06 
1.999999999994e+01 4.899411989710e+06 
2.199999999994e+01 4.899400542119e+06 
2.399999999993e+01 4.899415501591e+06 
2.599999999993e+01 4.899409385594e+06 
2.799999999992e+01 4.899370010657e+06 
2.999999999992e+01 4.899349862728e+06 
3.199999999991e+01 4.899309764446e+06 
3.399999999992e+01 4.899281582680e+06 
3.599999999992e+01 4.899221278869e+06 
3.799999999993e+01 4.899153698630e+06 
3.999999999993e+01 4.899068205908e+06 
4.199999999994e+01 4.898907170819e+06 
4.399999999994e+01 4.898881425576e+06 
4.599999999995e+01 4.898957422670e+06 
4.799999999996e+01 4.899057522887e+06 
4.999999999996e+01 4.899089580304e+06 
5.199999999997e+01 4.899165703436e+06 
5.399999999997e+01 4.899230541097e+06 
5.599999999998e+01 4.899297233564e+06 
5.799999999998e+01 4.899345702780e+06 
5.999999999999e+01 4.899393819540e+06 
6.199999999999e+01 4.899433504053e+06 
6.400000000000e+01 4.899454792844e+06 
 ZONE T="TIME=3.600000001000e+03"
0.000000000000e+00 4.900343836045e+06 
1.999999999994e+00 4.900289863572e+06 
3.999999999989e+00 4.900248724448e+06 
5.999999999983e+00 4.900274854167e+06 
7.999999999978e+00 4.900270090373e+06 
9.999999999972e+00 4.900221829285e+06 
1.199999999997e+01 4.900153831297e+06 
1.399999999996e+01 4.900071566014e+06 
1.599999999996e+01 4.899989177176e+06 
1.799999999995e+01 4.899927172125e+06 
1.999999999994e+01 4.899880022182e+06 
2.199999999994e+01 4.899868257067e+06 
2.399999999993e+01 4.899883193209e+06 
2.599999999993e+01 4.899876744223e+06 
2.799999999992e+01 4.899836741926e+06 
2.999999999992e+01 4.899816100733e+06 
3.199999999991e+01 4.899775265499e+06 
3.399999999992e+01 4.899746310262e+06 
3.599999999992e+01 4.899685120032e+06 
3.799999999993e+01 4.899616513767e+06 
3.999999999993e+01 4.899529786338e+06 
4.199999999994e+01 4.899366312539e+06 
4.399999999994e+01 4.899340084956e+06 
4.599999999995e+01 4.899417361919e+06 
4.799999999996e+01 4.899518556960e+06 
4.999999999996e+01 4.899551224383e+06 
5.199999999997e+01 4.899628378594e+06 
5.399999999997e+01 4.899694074147e+06 
5.599999999998e+01 4.899761548662e+06 
5.799999999998e+01 4.899810613818e+06 
5.999999999999e+01 4.899859230333e+06 
6.199999999999e+01 4.899899248447e+06 
6.400000000000e+01 4.899920652308e+06 
 ZONE T="TIME=3.900000001000e+03"
0.000000000000e+00 4.900886939762e+06 
1.999999999994e+00 4.900833057488e+06 
3.999999999989e+00 4.900791833885e+06 
5.999999999983e+00 4.900817984612e+06 
7.999999999978e+00 4.900812812980e+06 
9.999999999972e+00 4.900763929303e+06 
1.199999999997e+01 4.900694997998e+06 
1.399999999996e+01 4.900611443598e+06 
1.599999999996e+01 4.900527593570e+06 
1.799999999995e+01 4.900464391469e+06 
1.999999999994e+01 4.900416296201e+06 
2.199999999994e+01 4.900404176476e+06 
2.399999999993e+01 4.900419080199e+06 
2.599999999993e+01 4.900412264866e+06 
2.799999999992e+01 4.900371579857e+06 
2.999999999992e+01 4.900350402310e+06 
3.199999999991e+01 4.900308772910e+06 
3.399999999992e+01 4.900278978622e+06 
3.599999999992e+01 4.900216839554e+06 
3.799999999993e+01 4.900147128239e+06 
3.999999999993e+01 4.900059074911e+06 
4.199999999994e+01 4.899892972841e+06 
4.399999999994e+01 4.899866223820e+06 
4.599999999995e+01 4.899944892652e+06 
4.799999999996e+01 4.900047268977e+06 
4.999999999996e+01 4.900080602452e+06 
5.199999999997e+01 4.900158872816e+06 
5.399999999997e+01 4.900225497280e+06 
5.599999999998e+01 4.900293816234e+06 
5.799999999998e+01 4.900343526205e+06 
5.999999999999e+01 4.900392681740e+06 
6.199999999999e+01 4.900433058197e+06 
6.400000000000e+01 4.900454584628e+06 
 ZONE T="TIME=4.200000001000e+03"
0.000000000000e+00 4.898154853724e+06 
1.999999999994e+00 4.898100463881e+06 
3.999999999989e+00 4.898059773186e+06 
5.999999999983e+00 4.898085666792e+06 
7.999999999978e+00 4.898082726056e+06 
9.999999999972e+00 4.898037392720e+06 
1.199999999997e+01 4.897973810380e+06 
1.399999999996e+01 4.897897615269e+06 
1.599999999996e+01 4.897822052809e+06 
1.799999999995e+01 4.897765602486e+06 
1.999999999994e+01 4.897722836085e+06 
2.199999999994e+01 4.897712720338e+06 
2.399999999993e+01 4.897727821533e+06 
2.599999999993e+01 4.897723122704e+06 
2.799999999992e+01 4.897686389049e+06 
2.999999999992e+01 4.897668276314e+06 
3.199999999991e+01 4.897631247799e+06 
3.399999999992e+01 4.897606219759e+06 
3.599999999992e+01 4.897549623268e+06 
3.799999999993e+01 4.897486292688e+06 
3.999999999993e+01 4.897405936953e+06 
4.199999999994e+01 4.897255009227e+06 
4.399999999994e+01 4.897231243536e+06 
4.599999999995e+01 4.897302019075e+06 
4.799999999996e+01 4.897397557135e+06 
4.999999999996e+01 4.897427147414e+06 
5.199999999997e+01 4.897499014818e+06 
5.399999999997e+01 4.897560314294e+06 
5.599999999998e+01 4.897623759032e+06 
5.799999999998e+01 4.897669766519e+06 
5.999999999999e+01 4.897715803247e+06 
6.199999999999e+01 4.897754085790e+06 
6.400000000000e+01 4.897774881231e+06 
 ZONE T="TIME=4.500000001000e+03"
0.000000000000e+00 4.899579495097e+06 
1.999999999994e+00 4.899525388989e+06 
3.999999999989e+00 4.899484384041e+06 
5.999999999983e+00 4.899510456944e+06 
7.999999999978e+00 4.899506289931e+06 
9.999999999972e+00 4.899458963994e+06 
1.199999999997e+01 4.899392374091e+06 
1.399999999996e+01 4.899312050115e+06 
1.599999999996e+01 4.899231852802e+06 
1.799999999995e+01 4.899171633481e+06 
1.999999999994e+01 4.899125890803e+06 
2.199999999994e+01 4.899114649714e+06 
2.399999999993e+01 4.899129627229e+06 
2.599999999993e+01 4.899123726237e+06 
2.799999999992e+01 4.899084754861e+06 
2.999999999992e+01 4.899064920572e+06 
3.199999999991e+01 4.899025291548e+06 
3.399999999992e+01 4.898997599589e+06 
3.599999999992e+01 4.898937859741e+06 
3.799999999993e+01 4.898870932803e+06 
3.999999999993e+01 4.898786226776e+06 
4.199999999994e+01 4.898626748344e+06 
4.399999999994e+01 4.898601309589e+06 
4.599999999995e+01 4.898676490103e+06 
4.799999999996e+01 4.898775886259e+06 
4.999999999996e+01 4.898807554999e+06 
5.199999999997e+01 4.898883017460e+06 
5.399999999997e+01 4.898947305602e+06 
5.599999999998e+01 4.899013495976e+06 
5.799999999998e+01 4.899061583254e+06 
5.999999999999e+01 4.899109379043e+06 
6.199999999999e+01 4.899148848711e+06 
6.400000000000e+01 4.899170062953e+06 
 ZONE T="TIME=4.800000001000e+03"
0.000000000000e+00 4.901354311338e+06 
1.999999999994e+00 4.901300498431e+06 
3.999999999989e+00 4.901259210457e+06 
5.999999999983e+00 4.901285384702e+06 
7.999999999978e+00 4.901279892913e+06 
9.999999999972e+00 4.901230519147e+06 
1.199999999997e+01 4.901160848629e+06 
1.399999999996e+01 4.901076269251e+06 
1.599999999996e+01 4.900991255789e+06 
1.799999999995e+01 4.900927106691e+06 
1.999999999994e+01 4.900878269990e+06 
2.199999999994e+01 4.900865892300e+06 
2.399999999993e+01 4.900880819762e+06 
2.599999999993e+01 4.900873768883e+06 
2.799999999992e+01 4.900832592144e+06 
2.999999999992e+01 4.900811031982e+06 
3.199999999991e+01 4.900768832240e+06 
3.399999999992e+01 4.900738411719e+06 
3.599999999992e+01 4.900675590435e+06 
3.799999999993e+01 4.900605048349e+06 
3.999999999993e+01 4.900516003796e+06 
4.199999999994e+01 4.900347871088e+06 
4.399999999994e+01 4.900320724145e+06 
4.599999999995e+01 4.900400526903e+06 
4.799999999996e+01 4.900503869994e+06 
4.999999999996e+01 4.900537755246e+06 
5.199999999997e+01 4.900616935703e+06 
5.399999999997e+01 4.900684317039e+06 
5.599999999998e+01 4.900753322731e+06 
5.799999999998e+01 4.900803557684e+06 
5.999999999999e+01 4.900853149531e+06 
6.199999999999e+01 4.900893814006e+06 
6.400000000000e+01 4.900915437769e+06 
 ZONE T="TIME=5.100000001000e+03"
0.000000000000e+00 4.903585511417e+06 
1.999999999994e+00 4.903532026339e+06 
3.999999999989e+00 4.903490478417e+06 
5.999999999983e+00 4.903516577800e+06 
7.999999999978e+00 4.903509574835e+06 
9.999999999972e+00 4.903458027666e+06 
1.199999999997e+01 4.903385139733e+06 
1.399999999996e+01 4.903296105041e+06 
1.599999999996e+01 4.903206007671e+06 
1.799999999995e+01 4.903137660503e+06 
1.999999999994e+01 4.903085501297e+06 
2.199999999994e+01 4.903071863684e+06 
2.399999999993e+01 4.903086645711e+06 
2.599999999993e+01 4.903078298056e+06 
2.799999999992e+01 4.903034759359e+06 
2.999999999992e+01 4.903011308964e+06 
3.199999999991e+01 4.902966363829e+06 
3.399999999992e+01 4.902932994635e+06 
3.599999999992e+01 4.902866928998e+06 
3.799999999993e+01 4.902792590076e+06 
3.999999999993e+01 4.902699017085e+06 
4.199999999994e+01 4.902521905298e+06 
4.399999999994e+01 4.902492950951e+06 
4.599999999995e+01 4.902577564070e+06 
4.799999999996e+01 4.902684873527e+06 
4.999999999996e+01 4.902721076635e+06 
5.199999999997e+01 4.902804050229e+06 
5.399999999997e+01 4.902874591961e+06 
5.599999999998e+01 4.902946444642e+06 
5.799999999998e+01 4.902998867981e+06 
5.999999999999e+01 4.903050273086e+06 
6.199999999999e+01 4.903092129236e+06 
6.400000000000e+01 4.903114150678e+06 
 ZONE T="TIME=5.400000001000e+03"
0.000000000000e+00 4.906415115424e+06 
1.999999999994e+00 4.906361953036e+06 
3.999999999989e+00 4.906320188750e+06 
5.999999999983e+00 4.906346170120e+06 
7.999999999978e+00 4.906337604061e+06 
9.999999999972e+00 4.906283897354e+06 
1.199999999997e+01 4.906207789799e+06 
1.399999999996e+01 4.906114215650e+06 
1.599999999996e+01 4.906018824555e+06 
1.799999999995e+01 4.905946008124e+06 
1.999999999994e+01 4.905890302714e+06 
2.199999999994e+01 4.905875332504e+06 
2.399999999993e+01 4.905889989085e+06 
2.599999999993e+01 4.905880337628e+06 
2.799999999992e+01 4.905834418071e+06 
2.999999999992e+01 4.905809031189e+06 
3.199999999991e+01 4.905761329935e+06 
3.399999999992e+01 4.905724902586e+06 
3.599999999992e+01 4.905655593407e+06 
3.799999999993e+01 4.905577390357e+06 
3.999999999993e+01 4.905479218751e+06 
4.199999999994e+01 4.905292952916e+06 
4.399999999994e+01 4.905262127609e+06 
4.599999999995e+01 4.905351732995e+06 
4.799999999996e+01 4.905463022356e+06 
4.999999999996e+01 4.905501646926e+06 
5.199999999997e+01 4.905588475424e+06 
5.399999999997e+01 4.905662234060e+06 
5.599999999998e+01 4.905736953854e+06 
5.799999999998e+01 4.905791597549e+06 
5.999999999999e+01 4.905844824641e+06 
6.199999999999e+01 4.905887863095e+06 
6.400000000000e+01 4.905910268228e+06 
 ZONE T="TIME=5.700000001000e+03"
0.000000000000e+00 4.910119432903e+06 
1.999999999994e+00 4.910066616756e+06 
3.999999999989e+00 4.910024665724e+06 
5.999999999983e+00 4.910050378277e+06 
7.999999999978e+00 4.910040100347e+06 
9.999999999972e+00 4.909984151123e+06 
1.199999999997e+01 4.909904750696e+06 
1.399999999996e+01 4.909806534197e+06 
1.599999999996e+01 4.909705744839e+06 
1.799999999995e+01 4.909628397746e+06 
1.999999999994e+01 4.909569080640e+06 
2.199999999994e+01 4.909552699262e+06 
2.399999999993e+01 4.909567087913e+06 
2.599999999993e+01 4.909555904477e+06 
2.799999999992e+01 4.909507369645e+06 
2.999999999992e+01 4.909479757217e+06 
3.199999999991e+01 4.909428943411e+06 
3.399999999992e+01 4.909389086584e+06 
3.599999999992e+01 4.909316148771e+06 
3.799999999993e+01 4.909233739024e+06 
3.999999999993e+01 4.909130595301e+06 
4.199999999994e+01 4.908934631183e+06 
4.399999999994e+01 4.908901767833e+06 
4.599999999995e+01 4.908996540799e+06 
4.799999999996e+01 4.909111778246e+06 
4.999999999996e+01 4.909152897665e+06 
5.199999999997e+01 4.909243617378e+06 
5.399999999997e+01 4.909320630364e+06 
5.599999999998e+01 4.909398218185e+06 
5.799999999998e+01 4.909455100550e+06 
5.999999999999e+01 4.909510149966e+06 
6.199999999999e+01 4.909554357771e+06 
6.400000000000e+01 4.909577132504e+06 
 ZONE T="TIME=6.000000001000e+03"
0.000000000000e+00 4.914859158867e+06 
1.999999999994e+00 4.914806727966e+06 
3.999999999989e+00 4.914764614730e+06 
5.999999999983e+00 4.914789849504e+06 
7.999999999978e+00 4.914777656454e+06 
9.999999999972e+00 4.914719349540e+06 
1.199999999997e+01 4.914636545120e+06 
1.399999999996e+01 4.914533498007e+06 
1.599999999996e+01 4.914427040299e+06 
1.799999999995e+01 4.914344879372e+06 
1.999999999994e+01 4.914281732863e+06 
2.199999999994e+01 4.914263914632e+06 
2.399999999993e+01 4.914278178575e+06 
2.599999999993e+01 4.914265598534e+06 
2.799999999992e+01 4.914214564967e+06 
2.999999999992e+01 4.914184822196e+06 
3.199999999991e+01 4.914131086439e+06 
3.399999999992e+01 4.914087863686e+06 
3.599999999992e+01 4.914011561461e+06 
3.799999999993e+01 4.913925085593e+06 
3.999999999993e+01 4.913817183163e+06 
4.199999999994e+01 4.913611625758e+06 
4.399999999994e+01 4.913576746596e+06 
4.599999999995e+01 4.913676973326e+06 
4.799999999996e+01 4.913796311072e+06 
4.999999999996e+01 4.913840118631e+06 
5.199999999997e+01 4.913934883972e+06 
5.399999999997e+01 4.914015277931e+06 
5.599999999998e+01 4.914095817930e+06 
5.799999999998e+01 4.914155017356e+06 
5.999999999999e+01 4.914211925471e+06 
6.199999999999e+01 4.914257302098e+06 
6.400000000000e+01 4.914280431173e+06 
 ZONE T="TIME=6.300000001000e+03"