 TITLE = "Profiles along polylines"
 VARIABLES = "DIST" "PRESSURE1" 
 ZONE T="TIME=0.000000000000e+00"
0.000000000000e+00 0.000000000000e+00 
1.999999999994e+00 0.000000000000e+00 
3.999999999989e+00 0.000000000000e+00 
5.999999999983e+00 0.000000000000e+00 
7.999999999978e+00 0.000000000000e+00 
9.999999999972e+00 0.000000000000e+00 
1.199999999997e+01 0.000000000000e+00 
1.399999999996e+01 0.000000000000e+00 
1.599999999996e+01 0.000000000000e+00 
1.799999999995e+01 0.000000000000e+00 
1.999999999994e+01 0.000000000000e+00 
2.199999999994e+01 0.000000000000e+00 
2.399999999993e+01 0.000000000000e+00 
2.599999999993e+01 0.000000000000e+00 
2.799999999992e+01 0.000000000000e+00 
2.999999999992e+01 0.000000000000e+00 
3.199999999991e+01 0.000000000000e+00 
3.399999999992e+01 0.000000000000e+00 
3.599999999992e+01 0.000000000000e+00 
3.799999999993e+01 0.000000000000e+00 
3.999999999993e+01 0.000000000000e+00 
4.199999999994e+01 0.000000000000e+00 
4.399999999994e+01 0.000000000000e+00 
4.599999999995e+01 0.000000000000e+00 
4.799999999996e+01 0.000000000000e+00 
4.999999999996e+01 0.000000000000e+00 
5.199999999997e+01 0.000000000000e+00 
5.399999999997e+01 0.000000000000e+00 
5.599999999998e+01 0.000000000000e+00 
5.799999999998e+01 0.000000000000e+00 
5.999999999999e+01 0.000000000000e+00 
6.199999999999e+01 0.000000000000e+00 
6.400000000000e+01 0.000000000000e+00 
 TITLE = "Profiles along polylines"
 VARIABLES = "DIST" "PRESSURE1" 
 ZONE T="TIME=1.000000000000e-06"
0.000000000000e+00 4.897868715830e+06 
1.999999999994e+00 4.897884230295e+06 
3.999999999989e+00 4.897916244085e+06 
5.999999999983e+00 4.897955605557e+06 
7.999999999978e+00 4.897968291859e+06 
9.999999999972e+00 4.897940830670e+06 
1.199999999997e+01 4.897893234488e+06 
1.399999999996e+01 4.897830819373e+06 
1.599999999996e+01 4.897765595789e+06 
1.799999999995e+01 4.897715514867e+06 
1.999999999994e+01 4.897677025340e+06 
2.199999999994e+01 4.897669458101e+06 
2.399999999993e+01 4.897686806266e+06 
2.599999999993e+01 4.897684643542e+06 
2.799999999992e+01 4.897650329252e+06 
2.999999999992e+01 4.897633806564e+06 
3.199999999991e+01 4.897598644432e+06 
3.399999999992e+01 4.897574856098e+06 
3.599999999992e+01 4.897519934090e+06 
3.799999999993e+01 4.897457814440e+06 
3.999999999993e+01 4.897378862015e+06 
4.199999999994e+01 4.897229479250e+06 
4.399999999994e+01 4.897206121039e+06 
4.599999999995e+01 4.897277042041e+06 
4.799999999996e+01 4.897372839707e+06 
4.999999999996e+01 4.897402598538e+06 
5.199999999997e+01 4.897474617455e+06 
5.399999999997e+01 4.897536038366e+06 
5.599999999998e+01 4.897599599314e+06 
5.799999999998e+01 4.897645690927e+06 
5.999999999999e+01 4.897691784829e+06 
6.199999999999e+01 4.897730095718e+06 
6.400000000000e+01 4.897750896637e+06 
 ZONE T="TIME=3.000000010000e+02"
0.000000000000e+00 4.897868715809e+06 
1.999999999994e+00 4.897884230273e+06 
3.999999999989e+00 4.897916244064e+06 
5.999999999983e+00 4.897955605536e+06 
7.999999999978e+00 4.897968291838e+06 
9.999999999972e+00 4.897940830649e+06 
1.199999999997e+01 4.897893234466e+06 
1.399999999996e+01 4.897830819351e+06 
1.599999999996e+01 4.897765595768e+06 
1.799999999995e+01 4.897715514845e+06 
1.999999999994e+01 4.897677025319e+06 
2.199999999994e+01 4.897669458079e+06 
2.399999999993e+01 4.897686806245e+06 
2.599999999993e+01 4.897684643521e+06 
2.799999999992e+01 4.897650329231e+06 
2.999999999992e+01 4.897633806543e+06 
3.199999999991e+01 4.897598644410e+06 
3.399999999992e+01 4.897574856077e+06 
3.599999999992e+01 4.897519934069e+06 
3.799999999993e+01 4.897457814418e+06 
3.999999999993e+01 4.897378861993e+06 
4.199999999994e+01 4.897229479229e+06 
4.399999999994e+01 4.897206121017e+06 
4.599999999995e+01 4.897277042019e+06 
4.799999999996e+01 4.897372839685e+06 
4.999999999996e+01 4.897402598517e+06 
5.199999999997e+01 4.897474617434e+06 
5.399999999997e+01 4.897536038345e+06 
5.599999999998e+01 4.897599599293e+06 
5.799999999998e+01 4.897645690905e+06 
5.999999999999e+01 4.897691784808e+06 
6.199999999999e+01 4.897730095696e+06 
6.400000000000e+01 4.897750896616e+06 
 ZONE T="TIME=6.000000010000e+02"
0.000000000000e+00 4.897868715809e+06 
1.999999999994e+00 4.897884230273e+06 
3.999999999989e+00 4.897916244063e+06 
5.999999999983e+00 4.897955605536e+06 
7.999999999978e+00 4.897968291838e+06 
9.999999999972e+00 4.897940830649e+06 
1.199999999997e+01 4.897893234466e+06 
1.399999999996e+01 4.897830819351e+06 
1.599999999996e+01 4.897765595768e+06 
1.799999999995e+01 4.897715514845e+06 
1.999999999994e+01 4.897677025319e+06 
2.199999999994e+01 4.897669458079e+06 
2.399999999993e+01 4.897686806244e+06 
2.599999999993e+01 4.897684643521e+06 
2.799999999992e+01 4.897650329230e+06 
2.999999999992e+01 4.897633806543e+06 
3.199999999991e+01 4.897598644410e+06 
3.399999999992e+01 4.897574856077e+06 
3.599999999992e+01 4.897519934069e+06 
3.799999999993e+01 4.897457814418e+06 
3.999999999993e+01 4.897378861993e+06 
4.199999999994e+01 4.897229479229e+06 
4.399999999994e+01 4.897206121017e+06 
4.599999999995e+01 4.897277042019e+06 
4.799999999996e+01 4.897372839685e+06 
4.999999999996e+01 4.897402598516e+06 
5.199999999997e+01 4.897474617434e+06 
5.399999999997e+01 4.897536038345e+06 
5.599999999998e+01 4.897599599293e+06 
5.799999999998e+01 4.897645690905e+06 
5.999999999999e+01 4.897691784808e+06 
6.199999999999e+01 4.897730095696e+06 
6.400000000000e+01 4.897750896616e+06 
 ZONE T="TIME=9.000000010000e+02"
0.000000000000e+00 4.897868715809e+06 
1.999999999994e+00 4.897884230273e+06 
3.999999999989e+00 4.897916244063e+06 
5.999999999983e+00 4.897955605536e+06 
7.999999999978e+00 4.897968291838e+06 
9.999999999972e+00 4.897940830649e+06 
1.199999999997e+01 4.897893234466e+06 
1.399999999996e+01 4.897830819351e+06 
1.599999999996e+01 4.897765595768e+06 
1.799999999995e+01 4.897715514845e+06 
1.999999999994e+01 4.897677025319e+06 
2.199999999994e+01 4.897669458079e+06 
2.399999999993e+01 4.897686806244e+06 
2.599999999993e+01 4.897684643521e+06 
2.799999999992e+01 4.897650329230e+06 
2.999999999992e+01 4.897633806543e+06 
3.199999999991e+01 4.897598644410e+06 
3.399999999992e+01 4.897574856077e+06 
3.599999999992e+01 4.897519934069e+06 
3.799999999993e+01 4.897457814418e+06 
3.999999999993e+01 4.897378861993e+06 
4.199999999994e+01 4.897229479229e+06 
4.399999999994e+01 4.897206121017e+06 
4.599999999995e+01 4.897277042019e+06 
4.799999999996e+01 4.897372839685e+06 
4.999999999996e+01 4.897402598516e+06 
5.199999999997e+01 4.897474617434e+06 
5.399999999997e+01 4.897536038345e+06 
5.599999999998e+01 4.897599599293e+06 
5.799999999998e+01 4.897645690905e+06 
5.999999999999e+01 4.897691784808e+06 
6.199999999999e+01 4.897730095696e+06 
6.400000000000e+01 4.897750896615e+06 
 ZONE T="TIME=1.200000001000e+03"
0.000000000000e+00 4.897868715809e+06 
1.999999999994e+00 4.897884230273e+06 
3.999999999989e+00 4.897916244064e+06 
5.999999999983e+00 4.897955605536e+06 
7.999999999978e+00 4.897968291838e+06 
9.999999999972e+00 4.897940830649e+06 
1.199999999997e+01 4.897893234466e+06 
1.399999999996e+01 4.897830819352e+06 
1.599999999996e+01 4.897765595768e+06 
1.799999999995e+01 4.897715514845e+06 
1.999999999994e+01 4.897677025319e+06 
2.199999999994e+01 4.897669458080e+06 
2.399999999993e+01 4.897686806245e+06 
2.599999999993e+01 4.897684643521e+06 
2.799999999992e+01 4.897650329231e+06 
2.999999999992e+01 4.897633806543e+06 
3.199999999991e+01 4.897598644411e+06 
3.399999999992e+01 4.897574856077e+06 
3.599999999992e+01 4.897519934069e+06 
3.799999999993e+01 4.897457814418e+06 
3.999999999993e+01 4.897378861993e+06 
4.199999999994e+01 4.897229479229e+06 
4.399999999994e+01 4.897206121018e+06 
4.599999999995e+01 4.897277042019e+06 
4.799999999996e+01 4.897372839685e+06 
4.999999999996e+01 4.897402598517e+06 
5.199999999997e+01 4.897474617434e+06 
5.399999999997e+01 4.897536038345e+06 
5.599999999998e+01 4.897599599293e+06 
5.799999999998e+01 4.897645690906e+06 
5.999999999999e+01 4.897691784808e+06 
6.199999999999e+01 4.897730095697e+06 
6.400000000000e+01 4.897750896616e+06 
 ZONE T="TIME=1.500000001000e+03"
0.000000000000e+00 4.897868715809e+06 
1.999999999994e+00 4.897884230273e+06 
3.999999999989e+00 4.897916244063e+06 
5.999999999983e+00 4.897955605536e+06 
7.999999999978e+00 4.897968291837e+06 
9.999999999972e+00 4.897940830649e+06 
1.199999999997e+01 4.897893234466e+06 
1.399999999996e+01 4.897830819351e+06 
1.599999999996e+01 4.897765595768e+06 
1.799999999995e+01 4.897715514845e+06 
1.999999999994e+01 4.897677025319e+06 
2.199999999994e+01 4.897669458079e+06 
2.399999999993e+01 4.897686806244e+06 
2.599999999993e+01 4.897684643521e+06 
2.799999999992e+01 4.897650329230e+06 
2.999999999992e+01 4.897633806543e+06 
3.199999999991e+01 4.897598644410e+06 
3.399999999992e+01 4.897574856077e+06 
3.599999999992e+01 4.897519934069e+06 
3.799999999993e+01 4.897457814418e+06 
3.999999999993e+01 4.897378861993e+06 
4.199999999994e+01 4.897229479229e+06 
4.399999999994e+01 4.897206121017e+06 
4.599999999995e+01 4.897277042019e+06 
4.799999999996e+01 4.897372839685e+06 
4.999999999996e+01 4.897402598516e+06 
5.199999999997e+01 4.897474617434e+06 
5.399999999997e+01 4.897536038345e+06 
5.599999999998e+01 4.897599599293e+06 
5.799999999998e+01 4.897645690905e+06 
5.999999999999e+01 4.897691784808e+06 
6.199999999999e+01 4.897730095696e+06 
6.400000000000e+01 4.897750896615e+06 
 ZONE T="TIME=1.800000001000e+03"
0.000000000000e+00 4.897868715809e+06 
1.999999999994e+00 4.897884230273e+06 
3.999999999989e+00 4.897916244063e+06 
5.999999999983e+00 4.897955605536e+06 
7.999999999978e+00 4.897968291838e+06 
9.999999999972e+00 4.897940830649e+06 
1.199999999997e+01 4.897893234466e+06 
1.399999999996e+01 4.897830819351e+06 
1.599999999996e+01 4.897765595768e+06 
1.799999999995e+01 4.897715514845e+06 
1.999999999994e+01 4.897677025319e+06 
2.199999999994e+01 4.897669458079e+06 
2.399999999993e+01 4.897686806244e+06 
2.599999999993e+01 4.897684643521e+06 
2.799999999992e+01 4.897650329230e+06 
2.999999999992e+01 4.897633806543e+06 
3.199999999991e+01 4.897598644410e+06 
3.399999999992e+01 4.897574856077e+06 
3.599999999992e+01 4.897519934069e+06 
3.799999999993e+01 4.897457814418e+06 
3.999999999993e+01 4.897378861993e+06 
4.199999999994e+01 4.897229479229e+06 
4.399999999994e+01 4.897206121017e+06 
4.599999999995e+01 4.897277042019e+06 
4.799999999996e+01 4.897372839685e+06 
4.999999999996e+01 4.897402598516e+06 
5.199999999997e+01 4.897474617434e+06 
5.399999999997e+01 4.897536038345e+06 
5.599999999998e+01 4.897599599293e+06 
5.799999999998e+01 4.897645690905e+06 
5.999999999999e+01 4.897691784808e+06 
6.199999999999e+01 4.897730095696e+06 
6.400000000000e+01 4.897750896616e+06 
 ZONE T="TIME=2.100000001000e+03"
0.000000000000e+00 4.897868715809e+06 
1.999999999994e+00 4.897884230273e+06 
3.999999999989e+00 4.897916244064e+06 
5.999999999983e+00 4.897955605536e+06 
7.999999999978e+00 4.897968291838e+06 
9.999999999972e+00 4.897940830649e+06 
1.199999999997e+01 4.897893234466e+06 
1.399999999996e+01 4.897830819351e+06 
1.599999999996e+01 4.897765595768e+06 
1.799999999995e+01 4.897715514845e+06 
1.999999999994e+01 4.897677025319e+06 
2.199999999994e+01 4.897669458079e+06 
2.399999999993e+01 4.897686806244e+06 
2.599999999993e+01 4.897684643521e+06 
2.799999999992e+01 4.897650329230e+06 
2.999999999992e+01 4.897633806543e+06 
3.199999999991e+01 4.897598644410e+06 
3.399999999992e+01 4.897574856077e+06 
3.599999999992e+01 4.897519934069e+06 
3.799999999993e+01 4.897457814418e+06 
3.999999999993e+01 4.897378861993e+06 
4.199999999994e+01 4.897229479229e+06 
4.399999999994e+01 4.897206121017e+06 
4.599999999995e+01 4.897277042019e+06 
4.799999999996e+01 4.897372839685e+06 
4.999999999996e+01 4.897402598517e+06 
5.199999999997e+01 4.897474617434e+06 
5.399999999997e+01 4.897536038345e+06 
5.599999999998e+01 4.897599599293e+06 
5.799999999998e+01 4.897645690905e+06 
5.999999999999e+01 4.897691784808e+06 
6.199999999999e+01 4.897730095696e+06 
6.400000000000e+01 4.897750896616e+06 
 ZONE T="TIME=2.400000001000e+03"
0.000000000000e+00 4.898259087334e+06 
1.999999999994e+00 4.898274719331e+06 
3.999999999989e+00 4.898306961373e+06 
5.999999999983e+00 4.898346488433e+06 
7.999999999978e+00 4.898358986042e+06 
9.999999999972e+00 4.898331147883e+06 
1.199999999997e+01 4.898282901126e+06 
1.399999999996e+01 4.898219513597e+06 
1.599999999996e+01 4.898153141939e+06 
1.799999999995e+01 4.898102091314e+06 
1.999999999994e+01 4.898062822355e+06 
2.199999999994e+01 4.898054986579e+06 
2.399999999993e+01 4.898072354445e+06 
2.599999999993e+01 4.898069898200e+06 
2.799999999992e+01 4.898034982716e+06 
2.999999999992e+01 4.898017999374e+06 
3.199999999991e+01 4.897982118588e+06 
3.399999999992e+01 4.897957587310e+06 
3.599999999992e+01 4.897901776909e+06 
3.799999999993e+01 4.897838630409e+06 
3.999999999993e+01 4.897758429154e+06 
4.199999999994e+01 4.897606558421e+06 
4.399999999994e+01 4.897582721494e+06 
4.599999999995e+01 4.897654950605e+06 
4.799999999996e+01 4.897751910076e+06 
4.999999999996e+01 4.897782288193e+06 
5.199999999997e+01 4.897855381808e+06 
5.399999999997e+01 4.897917695616e+06 
5.599999999998e+01 4.897982079452e+06 
5.799999999998e+01 4.898028792759e+06 
5.999999999999e+01 4.898075413677e+06 
6.199999999999e+01 4.898114081361e+06 
6.400000000000e+01 4.898135009088e+06 
 ZONE T="TIME=2.700000001000e+03"
0.000000000000e+00 4.898646389593e+06 
1.999999999994e+00 4.898662131185e+06 
3.999999999989e+00 4.898694584793e+06 
5.999999999983e+00 4.898734260186e+06 
7.999999999978e+00 4.898746574320e+06 
9.999999999972e+00 4.898718380153e+06 
1.199999999997e+01 4.898669521331e+06 
1.399999999996e+01 4.898605218123e+06 
1.599999999996e+01 4.898537763028e+06 
1.799999999995e+01 4.898485796082e+06 
1.999999999994e+01 4.898445791319e+06 
2.199999999994e+01 4.898437705069e+06 
2.399999999993e+01 4.898455098620e+06 
2.599999999993e+01 4.898452374893e+06 
2.799999999992e+01 4.898416903472e+06 
2.999999999992e+01 4.898399492477e+06 
3.199999999991e+01 4.898362946739e+06 
3.399999999992e+01 4.898337719688e+06 
3.599999999992e+01 4.898281089002e+06 
3.799999999993e+01 4.898216985536e+06 
3.999999999993e+01 4.898135623124e+06 
4.199999999994e+01 4.897981425692e+06 
4.399999999994e+01 4.897957140316e+06 
4.599999999995e+01 4.898030608303e+06 
4.799999999996e+01 4.898128660528e+06 
4.999999999996e+01 4.898159628370e+06 
5.199999999997e+01 4.898233735917e+06 
5.399999999997e+01 4.898296892281e+06 
5.599999999998e+01 4.898362050603e+06 
5.799999999998e+01 4.898409350223e+06 
5.999999999999e+01 4.898456466481e+06 
6.199999999999e+01 4.898495468081e+06 
6.400000000000e+01 4.898516513485e+06 
 ZONE T="TIME=3.000000001000e+03"
0.000000000000e+00 4.899089231213e+06 
1.999999999994e+00 4.899105090020e+06 
3.999999999989e+00 4.899137768297e+06 
5.999999999983e+00 4.899177594818e+06 
7.999999999978e+00 4.899189702857e+06 
9.999999999972e+00 4.899161121176e+06 
1.199999999997e+01 4.899111599365e+06 
1.399999999996e+01 4.899046303565e+06 
1.599999999996e+01 4.898977671165e+06 
1.799999999995e+01 4.898924705901e+06 
1.999999999994e+01 4.898883898994e+06 
2.199999999994e+01 4.898875539204e+06 
2.399999999993e+01 4.898892959131e+06 
2.599999999993e+01 4.898889944094e+06 
2.799999999992e+01 4.898853870848e+06 
2.999999999992e+01 4.898835993772e+06 
3.199999999991e+01 4.898798727659e+06 
3.399999999992e+01 4.898772741665e+06 
3.599999999992e+01 4.898715225349e+06 
3.799999999993e+01 4.898650085974e+06 
3.999999999993e+01 4.898567469067e+06 
4.199999999994e+01 4.898410755802e+06 
4.399999999994e+01 4.898385983492e+06 
4.599999999995e+01 4.898460798195e+06 
4.799999999996e+01 4.898560027865e+06 
4.999999999996e+01 4.898591638820e+06 
5.199999999997e+01 4.898666843325e+06 
5.399999999997e+01 4.898730911535e+06 
5.599999999998e+01 4.898796905713e+06 
5.799999999998e+01 4.898844839468e+06 
5.999999999999e+01 4.898892489899e+06 
6.199999999999e+01 4.898931850252e+06 
6.400000000000e+01 4.898953021105e+06 
 ZONE T="TIME=3.300000001000e+03"
0.000000000000e+00 4.899560417899e+06 
1.999999999994e+00 4.899576393518e+06 
3.999999999989e+00 4.899609294196e+06 
5.999999999983e+00 4.899649264156e+06 
7.999999999978e+00 4.899661158220e+06 
9.999999999972e+00 4.899632185478e+06 
1.199999999997e+01 4.899581997137e+06 
1.399999999996e+01 4.899515702184e+06 
1.599999999996e+01 4.899445881603e+06 
1.799999999995e+01 4.899391906391e+06 
1.999999999994e+01 4.899350287649e+06 
2.199999999994e+01 4.899341651283e+06 
2.399999999993e+01 4.899359098035e+06 
2.599999999993e+01 4.899355789917e+06 
2.799999999992e+01 4.899319112746e+06 
2.999999999992e+01 4.899300764719e+06 
3.199999999991e+01 4.899262774801e+06 
3.399999999992e+01 4.899236020249e+06 
3.599999999992e+01 4.899177616796e+06 
3.799999999993e+01 4.899111436110e+06 
3.999999999993e+01 4.899027560647e+06 
4.199999999994e+01 4.898868319719e+06 
4.399999999994e+01 4.898843056206e+06 
4.599999999995e+01 4.898919232536e+06 
4.799999999996e+01 4.899019642063e+06 
4.999999999996e+01 4.899051905479e+06 
5.199999999997e+01 4.899128213609e+06 
5.399999999997e+01 4.899193199492e+06 
5.599999999998e+01 4.899260032447e+06 
5.799999999998e+01 4.899308603953e+06 
5.999999999999e+01 4.899356789947e+06 
6.199999999999e+01 4.899396508562e+06 
6.400000000000e+01 4.899417803665e+06 
 ZONE T="TIME=3.600000001000e+03"
0.000000000000e+00 4.900028463973e+06 
1.999999999994e+00 4.900044548306e+06 
3.999999999989e+00 4.900077654605e+06 
5.999999999983e+00 4.900117751601e+06 
7.999999999978e+00 4.900129439099e+06 
9.999999999972e+00 4.900100098489e+06 
1.199999999997e+01 4.900049285316e+06 
1.399999999996e+01 4.899982052504e+06 
1.599999999996e+01 4.899911113956e+06 
1.799999999995e+01 4.899856186578e+06 
1.999999999994e+01 4.899813802309e+06 
2.199999999994e+01 4.899804905611e+06 
2.399999999993e+01 4.899822377987e+06 
2.599999999993e+01 4.899818794602e+06 
2.799999999992e+01 4.899781551713e+06 
2.999999999992e+01 4.899762759115e+06 
3.199999999991e+01 4.899724089503e+06 
3.399999999992e+01 4.899696608052e+06 
3.599999999992e+01 4.899637373674e+06 
3.799999999993e+01 4.899570215196e+06 
3.999999999993e+01 4.899485160036e+06 
4.199999999994e+01 4.899323548017e+06 
4.399999999994e+01 4.899297821795e+06 
4.599999999995e+01 4.899375282024e+06 
4.799999999996e+01 4.899476794243e+06 
4.999999999996e+01 4.899509674707e+06 
5.199999999997e+01 4.899587018340e+06 
5.399999999997e+01 4.899652865541e+06 
5.599999999998e+01 4.899720483540e+06 
5.799999999998e+01 4.899769653218e+06 
5.999999999999e+01 4.899818340067e+06 
6.199999999999e+01 4.899858392464e+06 
6.400000000000e+01 4.899879802409e+06 
 ZONE T="TIME=3.900000001000e+03"
0.000000000000e+00 4.900564428668e+06 
1.999999999994e+00 4.900580628871e+06 
3.999999999989e+00 4.900613952342e+06 
5.999999999983e+00 4.900654175732e+06 
7.999999999978e+00 4.900665630880e+06 
9.999999999972e+00 4.900635889070e+06 
1.199999999997e+01 4.900584398577e+06 
1.399999999996e+01 4.900516148547e+06 
1.599999999996e+01 4.900443994315e+06 
1.799999999995e+01 4.900388027990e+06 
1.999999999994e+01 4.900344807516e+06 
2.199999999994e+01 4.900335625550e+06 
2.399999999993e+01 4.900353123981e+06 
2.599999999993e+01 4.900349241256e+06 
2.799999999992e+01 4.900311386675e+06 
2.999999999992e+01 4.900292111076e+06 
3.199999999991e+01 4.900252707791e+06 
3.399999999992e+01 4.900224436090e+06 
3.599999999992e+01 4.900164308261e+06 
3.799999999993e+01 4.900096094333e+06 
3.999999999993e+01 4.900009768474e+06 
4.199999999994e+01 4.899845597702e+06 
4.399999999994e+01 4.899819370302e+06 
4.599999999995e+01 4.899898225301e+06 
4.799999999996e+01 4.900000925270e+06 
4.999999999996e+01 4.900034478278e+06 
5.199999999997e+01 4.900112941369e+06 
5.399999999997e+01 4.900179720003e+06 
5.599999999998e+01 4.900248184555e+06 
5.799999999998e+01 4.900298000638e+06 
5.999999999999e+01 4.900347227088e+06 
6.199999999999e+01 4.900387637686e+06 
6.400000000000e+01 4.900409169873e+06 
 ZONE T="TIME=4.200000001000e+03"
0.000000000000e+00 4.897868715796e+06 
1.999999999994e+00 4.897884230260e+06 
3.999999999989e+00 4.897916244050e+06 
5.999999999983e+00 4.897955605523e+06 
7.999999999978e+00 4.897968291824e+06 
9.999999999972e+00 4.897940830635e+06 
1.199999999997e+01 4.897893234453e+06 
1.399999999996e+01 4.897830819338e+06 
1.599999999996e+01 4.897765595754e+06 
1.799999999995e+01 4.897715514832e+06 
1.999999999994e+01 4.897677025305e+06 
2.199999999994e+01 4.897669458066e+06 
2.399999999993e+01 4.897686806231e+06 
2.599999999993e+01 4.897684643507e+06 
2.799999999992e+01 4.897650329217e+06 
2.999999999992e+01 4.897633806529e+06 
3.199999999991e+01 4.897598644397e+06 
3.399999999992e+01 4.897574856063e+06 
3.599999999992e+01 4.897519934055e+06 
3.799999999993e+01 4.897457814404e+06 
3.999999999993e+01 4.897378861979e+06 
4.199999999994e+01 4.897229479215e+06 
4.399999999994e+01 4.897206121003e+06 
4.599999999995e+01 4.897277042005e+06 
4.799999999996e+01 4.897372839671e+06 
4.999999999996e+01 4.897402598503e+06 
5.199999999997e+01 4.897474617420e+06 
5.399999999997e+01 4.897536038331e+06 
5.599999999998e+01 4.897599599279e+06 
5.799999999998e+01 4.897645690892e+06 
5.999999999999e+01 4.897691784794e+06 
6.199999999999e+01 4.897730095683e+06 
6.400000000000e+01 4.897750896602e+06 
 ZONE T="TIME=4.500000001000e+03"
0.000000000000e+00 4.899273987134e+06 
1.999999999994e+00 4.899289892710e+06 
3.999999999989e+00 4.899322660230e+06 
5.999999999983e+00 4.899362545111e+06 
7.999999999978e+00 4.899374568643e+06 
9.999999999972e+00 4.899345831131e+06 
1.199999999997e+01 4.899296043354e+06 
1.399999999996e+01 4.899230348983e+06 
1.599999999996e+01 4.899161242971e+06 
1.799999999995e+01 4.899107875453e+06 
1.999999999994e+01 4.899066745250e+06 
2.199999999994e+01 4.899058275329e+06 
2.399999999993e+01 4.899075706019e+06 
2.599999999993e+01 4.899072574134e+06 
2.799999999992e+01 4.899036259806e+06 
2.999999999992e+01 4.899018195118e+06 
3.199999999991e+01 4.898980640152e+06 
3.399999999992e+01 4.898954348127e+06 
3.599999999992e+01 4.898896477432e+06 
3.799999999993e+01 4.898830922478e+06 
3.999999999993e+01 4.898747802991e+06 
4.199999999994e+01 4.898590080708e+06 
4.399999999994e+01 4.898565112561e+06 
4.599999999995e+01 4.898640469849e+06 
4.799999999996e+01 4.898740170951e+06 
4.999999999996e+01 4.898772041645e+06 
5.199999999997e+01 4.898847686588e+06 
5.399999999997e+01 4.898912120989e+06 
5.599999999998e+01 4.898978450168e+06 
5.799999999998e+01 4.899026638467e+06 
5.999999999999e+01 4.899074502852e+06 
6.199999999999e+01 4.899114006498e+06 
6.400000000000e+01 4.899135227170e+06 
 ZONE T="TIME=4.800000001000e+03"
0.000000000000e+00 4.901020943853e+06 
1.999999999994e+00 4.901037237164e+06 
3.999999999989e+00 4.901070734296e+06 
5.999999999983e+00 4.901111055064e+06 
7.999999999978e+00 4.901122320180e+06 
9.999999999972e+00 4.901092256183e+06 
1.199999999997e+01 4.901040222369e+06 
1.399999999996e+01 4.900971154644e+06 
1.599999999996e+01 4.900898020806e+06 
1.799999999995e+01 4.900841216341e+06 
1.999999999994e+01 4.900797321824e+06 
2.199999999994e+01 4.900787913007e+06 
2.399999999993e+01 4.900805439552e+06 
2.599999999993e+01 4.900801323747e+06 
2.799999999992e+01 4.900762985170e+06 
2.999999999992e+01 4.900743325749e+06 
3.199999999991e+01 4.900703341228e+06 
3.399999999992e+01 4.900674436299e+06 
3.599999999992e+01 4.900613601855e+06 
3.799999999993e+01 4.900544545972e+06 
3.999999999993e+01 4.900457208618e+06 
4.199999999994e+01 4.900290989702e+06 
4.399999999994e+01 4.900264360565e+06 
4.599999999995e+01 4.900344345408e+06 
4.799999999996e+01 4.900448001350e+06 
4.999999999996e+01 4.900482101692e+06 
5.199999999997e+01 4.900561468024e+06 
5.399999999997e+01 4.900628998312e+06 
5.599999999998e+01 4.900698144272e+06 
5.799999999998e+01 4.900748481623e+06 
5.999999999999e+01 4.900798141830e+06 
6.199999999999e+01 4.900838839192e+06 
6.400000000000e+01 4.900860468437e+06 
 ZONE T="TIME=5.100000001000e+03"
0.000000000000e+00 4.903211767776e+06 
1.999999999994e+00 4.903228437446e+06 
3.999999999989e+00 4.903262618183e+06 
5.999999999983e+00 4.903303253334e+06 
7.999999999978e+00 4.903313634658e+06 
9.999999999972e+00 4.903282170541e+06 
1.199999999997e+01 4.903227816709e+06 
1.399999999996e+01 4.903155259434e+06 
1.599999999996e+01 4.903077927365e+06 
1.799999999995e+01 4.903017505054e+06 
1.999999999994e+01 4.902970692572e+06 
2.199999999994e+01 4.902960282150e+06 
2.399999999993e+01 4.902977880221e+06 
2.599999999993e+01 4.902972717996e+06 
2.799999999992e+01 4.902932285159e+06 
2.999999999992e+01 4.902910936072e+06 
3.199999999991e+01 4.902868432078e+06 
3.399999999992e+01 4.902836761585e+06 
3.599999999992e+01 4.902772886599e+06 
3.799999999993e+01 4.902700218951e+06 
3.999999999993e+01 4.902608555972e+06 
4.199999999994e+01 4.902433618994e+06 
4.399999999994e+01 4.902405258540e+06 
4.599999999995e+01 4.902490058362e+06 
4.799999999996e+01 4.902597700015e+06 
4.999999999996e+01 4.902634139258e+06 
5.199999999997e+01 4.902717306799e+06 
5.399999999997e+01 4.902788003350e+06 
5.599999999998e+01 4.902860001250e+06 
5.799999999998e+01 4.902912530617e+06 
5.999999999999e+01 4.902964004411e+06 
6.199999999999e+01 4.903005891695e+06 
6.400000000000e+01 4.903027916975e+06 
 ZONE T="TIME=5.400000001000e+03"
0.000000000000e+00 4.905976346523e+06 
1.999999999994e+00 4.905993397574e+06 
3.999999999989e+00 4.906028255473e+06 
5.999999999983e+00 4.906069133185e+06 
7.999999999978e+00 4.906078560216e+06 
9.999999999972e+00 4.906045679542e+06 
1.199999999997e+01 4.905988993132e+06 
1.399999999996e+01 4.905912896577e+06 
1.599999999996e+01 4.905831266287e+06 
1.799999999995e+01 4.905767112547e+06 
1.999999999994e+01 4.905717286837e+06 
2.199999999994e+01 4.905705858799e+06 
2.399999999993e+01 4.905723563722e+06 
2.599999999993e+01 4.905717360011e+06 
2.799999999992e+01 4.905674830516e+06 
2.999999999992e+01 4.905651747838e+06 
3.199999999991e+01 4.905606702858e+06 
3.399999999992e+01 4.905572163325e+06 
3.599999999992e+01 4.905505239938e+06 
3.799999999993e+01 4.905428903620e+06 
3.999999999993e+01 4.905332869058e+06 
4.199999999994e+01 4.905149071358e+06 
4.399999999994e+01 4.905118928521e+06 
4.599999999995e+01 4.905208729844e+06 
4.799999999996e+01 4.905320390133e+06 
4.999999999996e+01 4.905359282153e+06 
5.199999999997e+01 4.905446325899e+06 
5.399999999997e+01 4.905520254784e+06 
5.599999999998e+01 4.905595134686e+06 
5.799999999998e+01 4.905649895086e+06 
5.999999999999e+01 4.905703195273e+06 
6.199999999999e+01 4.905746264155e+06 
6.400000000000e+01 4.905768671053e+06 
 ZONE T="TIME=5.700000001000e+03"
0.000000000000e+00 4.909502819857e+06 
1.999999999994e+00 4.909520242928e+06 
3.999999999989e+00 4.909555735336e+06 
5.999999999983e+00 4.909596734604e+06 
7.999999999978e+00 4.909605090499e+06 
9.999999999972e+00 4.909570736117e+06 
1.199999999997e+01 4.909511669310e+06 
1.399999999996e+01 4.909431947272e+06 
1.599999999996e+01 4.909345891850e+06 
1.799999999995e+01 4.909277876118e+06 
1.999999999994e+01 4.909224925624e+06 
2.199999999994e+01 4.909212444003e+06 
2.399999999993e+01 4.909230255715e+06 
2.599999999993e+01 4.909222965872e+06 
2.799999999992e+01 4.909178288288e+06 
2.999999999992e+01 4.909153379833e+06 
3.199999999991e+01 4.909105707019e+06 
3.399999999992e+01 4.909068145888e+06 
3.599999999992e+01 4.908998097733e+06 
3.799999999993e+01 4.908917986855e+06 
3.999999999993e+01 4.908817484359e+06 
4.199999999994e+01 4.908624603748e+06 
4.399999999994e+01 4.908592606223e+06 
4.599999999995e+01 4.908687616825e+06 
4.799999999996e+01 4.908803330606e+06 
4.999999999996e+01 4.908844793346e+06 
5.199999999997e+01 4.908935790490e+06 
5.399999999997e+01 4.909013019436e+06 
5.599999999998e+01 4.909090810918e+06 
5.799999999998e+01 4.909147841096e+06 
5.999999999999e+01 4.909202979897e+06 
6.199999999999e+01 4.909247221251e+06 
6.400000000000e+01 4.909269994967e+06 
 ZONE T="TIME=6.000000001000e+03"
0.000000000000e+00 4.913926612553e+06 
1.999999999994e+00 4.913944395443e+06 
3.999999999989e+00 4.913980471369e+06 
5.999999999983e+00 4.914021456049e+06 
7.999999999978e+00 4.914028612845e+06 
9.999999999972e+00 4.913992724556e+06 
1.199999999997e+01 4.913931228342e+06 
1.399999999996e+01 4.913847782478e+06 
1.599999999996e+01 4.913757144943e+06 
1.799999999995e+01 4.913685093777e+06 
1.999999999994e+01 4.913628883114e+06 
2.199999999994e+01 4.913615348727e+06 
2.399999999993e+01 4.913633381105e+06 
2.599999999993e+01 4.913625095243e+06 
2.799999999992e+01 4.913578347528e+06 
2.999999999992e+01 4.913551654416e+06 
3.199999999991e+01 4.913501453166e+06 
3.399999999992e+01 4.913460863532e+06 
3.599999999992e+01 4.913387826765e+06 
3.799999999993e+01 4.913303995724e+06 
3.999999999993e+01 4.913199118719e+06 
4.199999999994e+01 4.912997144564e+06 
4.399999999994e+01 4.912963281700e+06 
4.599999999995e+01 4.913063748353e+06 
4.799999999996e+01 4.913183604618e+06 
4.999999999996e+01 4.913227795435e+06 
5.199999999997e+01 4.913322855842e+06 
5.399999999997e+01 4.913403477538e+06 
5.599999999998e+01 4.913484232314e+06 
5.799999999998e+01 4.913543587210e+06 
5.999999999999e+01 4.913600585670e+06 
6.199999999999e+01 4.913645992511e+06 
6.400000000000e+01 4.913669117424e+06 
 ZONE T="TIME=6.300000001000e+03"