 TITLE = "Profiles along polylines"
 VARIABLES = "DIST" "PRESSURE1" 
 ZONE T="TIME=0.000000000000e+00"
0.000000000000e+00 0.000000000000e+00 
1.999999999998e+00 0.000000000000e+00 
3.999999999993e+00 0.000000000000e+00 
5.999999999987e+00 0.000000000000e+00 
7.999999999981e+00 0.000000000000e+00 
9.999999999976e+00 0.000000000000e+00 
1.199999999997e+01 0.000000000000e+00 
1.399999999996e+01 0.000000000000e+00 
1.599999999996e+01 0.000000000000e+00 
1.799999999995e+01 0.000000000000e+00 
1.999999999995e+01 0.000000000000e+00 
2.199999999994e+01 0.000000000000e+00 
2.399999999994e+01 0.000000000000e+00 
2.599999999993e+01 0.000000000000e+00 
2.799999999992e+01 0.000000000000e+00 
2.999999999992e+01 0.000000000000e+00 
3.199999999991e+01 0.000000000000e+00 
3.399999999992e+01 0.000000000000e+00 
3.599999999992e+01 0.000000000000e+00 
3.799999999993e+01 0.000000000000e+00 
3.999999999993e+01 0.000000000000e+00 
4.199999999994e+01 0.000000000000e+00 
4.399999999995e+01 0.000000000000e+00 
4.599999999995e+01 0.000000000000e+00 
4.799999999996e+01 0.000000000000e+00 
4.999999999996e+01 0.000000000000e+00 
5.199999999997e+01 0.000000000000e+00 
5.399999999997e+01 0.000000000000e+00 
5.599999999998e+01 0.000000000000e+00 
5.799999999998e+01 0.000000000000e+00 
5.999999999999e+01 0.000000000000e+00 
6.199999999999e+01 0.000000000000e+00 
6.400000000000e+01 0.000000000000e+00 
 TITLE = "Profiles along polylines"
 VARIABLES = "DIST" "PRESSURE1" 
 ZONE T="TIME=1.000000000000e-06"
0.000000000000e+00 4.890120691769e+06 
1.999999999998e+00 4.890117149014e+06 
3.999999999993e+00 4.890141320867e+06 
5.999999999987e+00 4.890164503354e+06 
7.999999999981e+00 4.890212762393e+06 
9.999999999976e+00 4.890203653058e+06 
1.199999999997e+01 4.890167637894e+06 
1.399999999996e+01 4.890200451304e+06 
1.599999999996e+01 4.890201893446e+06 
1.799999999995e+01 4.890191959470e+06 
1.999999999995e+01 4.890192114622e+06 
2.199999999994e+01 4.890140728974e+06 
2.399999999994e+01 4.890093789375e+06 
2.599999999993e+01 4.890118278976e+06 
2.799999999992e+01 4.890121841786e+06 
2.999999999992e+01 4.890105285911e+06 
3.199999999991e+01 4.890114395989e+06 
3.399999999992e+01 4.890153658889e+06 
3.599999999992e+01 4.890159309139e+06 
3.799999999993e+01 4.890136406905e+06 
3.999999999993e+01 4.890116221994e+06 
4.199999999994e+01 4.890083142024e+06 
4.399999999995e+01 4.890085451211e+06 
4.599999999995e+01 4.890094331924e+06 
4.799999999996e+01 4.890101897277e+06 
4.999999999996e+01 4.890122657512e+06 
5.199999999997e+01 4.890117420088e+06 
5.399999999997e+01 4.890130899117e+06 
5.599999999998e+01 4.890123589222e+06 
5.799999999998e+01 4.890066093640e+06 
5.999999999999e+01 4.890053484690e+06 
6.199999999999e+01 4.890050382509e+06 
6.400000000000e+01 4.890049300272e+06 
 ZONE T="TIME=3.000000010000e+02"
0.000000000000e+00 4.890120773833e+06 
1.999999999998e+00 4.890117228735e+06 
3.999999999993e+00 4.890141414753e+06 
5.999999999987e+00 4.890164609692e+06 
7.999999999981e+00 4.890212893595e+06 
9.999999999976e+00 4.890203777112e+06 
1.199999999997e+01 4.890167735012e+06 
1.399999999996e+01 4.890200563440e+06 
1.599999999996e+01 4.890202003270e+06 
1.799999999995e+01 4.890192059493e+06 
1.999999999995e+01 4.890192210352e+06 
2.199999999994e+01 4.890140796597e+06 
2.399999999994e+01 4.890093830516e+06 
2.599999999993e+01 4.890118324642e+06 
2.799999999992e+01 4.890121883388e+06 
2.999999999992e+01 4.890105313517e+06 
3.199999999991e+01 4.890114415330e+06 
3.399999999992e+01 4.890153670430e+06 
3.599999999992e+01 4.890159312006e+06 
3.799999999993e+01 4.890136397102e+06 
3.999999999993e+01 4.890116202989e+06 
4.199999999994e+01 4.890083115665e+06 
4.399999999995e+01 4.890085391844e+06 
4.599999999995e+01 4.890094250635e+06 
4.799999999996e+01 4.890101788165e+06 
4.999999999996e+01 4.890122509930e+06 
5.199999999997e+01 4.890117265030e+06 
5.399999999997e+01 4.890130703264e+06 
5.599999999998e+01 4.890123399541e+06 
5.799999999998e+01 4.890065983033e+06 
5.999999999999e+01 4.890053387683e+06 
6.199999999999e+01 4.890050284829e+06 
6.400000000000e+01 4.890049200180e+06 
 ZONE T="TIME=6.000000010000e+02"
0.000000000000e+00 4.890120773833e+06 
1.999999999998e+00 4.890117228735e+06 
3.999999999993e+00 4.890141414753e+06 
5.999999999987e+00 4.890164609692e+06 
7.999999999981e+00 4.890212893595e+06 
9.999999999976e+00 4.890203777112e+06 
1.199999999997e+01 4.890167735012e+06 
1.399999999996e+01 4.890200563440e+06 
1.599999999996e+01 4.890202003270e+06 
1.799999999995e+01 4.890192059493e+06 
1.999999999995e+01 4.890192210352e+06 
2.199999999994e+01 4.890140796597e+06 
2.399999999994e+01 4.890093830516e+06 
2.599999999993e+01 4.890118324642e+06 
2.799999999992e+01 4.890121883388e+06 
2.999999999992e+01 4.890105313517e+06 
3.199999999991e+01 4.890114415330e+06 
3.399999999992e+01 4.890153670430e+06 
3.599999999992e+01 4.890159312006e+06 
3.799999999993e+01 4.890136397102e+06 
3.999999999993e+01 4.890116202989e+06 
4.199999999994e+01 4.890083115665e+06 
4.399999999995e+01 4.890085391844e+06 
4.599999999995e+01 4.890094250635e+06 
4.799999999996e+01 4.890101788165e+06 
4.999999999996e+01 4.890122509930e+06 
5.199999999997e+01 4.890117265030e+06 
5.399999999997e+01 4.890130703264e+06 
5.599999999998e+01 4.890123399541e+06 
5.799999999998e+01 4.890065983033e+06 
5.999999999999e+01 4.890053387683e+06 
6.199999999999e+01 4.890050284829e+06 
6.400000000000e+01 4.890049200180e+06 
 ZONE T="TIME=9.000000010000e+02"
0.000000000000e+00 4.890120773833e+06 
1.999999999998e+00 4.890117228735e+06 
3.999999999993e+00 4.890141414753e+06 
5.999999999987e+00 4.890164609692e+06 
7.999999999981e+00 4.890212893595e+06 
9.999999999976e+00 4.890203777112e+06 
1.199999999997e+01 4.890167735012e+06 
1.399999999996e+01 4.890200563440e+06 
1.599999999996e+01 4.890202003270e+06 
1.799999999995e+01 4.890192059493e+06 
1.999999999995e+01 4.890192210352e+06 
2.199999999994e+01 4.890140796597e+06 
2.399999999994e+01 4.890093830516e+06 
2.599999999993e+01 4.890118324642e+06 
2.799999999992e+01 4.890121883388e+06 
2.999999999992e+01 4.890105313517e+06 
3.199999999991e+01 4.890114415330e+06 
3.399999999992e+01 4.890153670430e+06 
3.599999999992e+01 4.890159312006e+06 
3.799999999993e+01 4.890136397102e+06 
3.999999999993e+01 4.890116202989e+06 
4.199999999994e+01 4.890083115665e+06 
4.399999999995e+01 4.890085391844e+06 
4.599999999995e+01 4.890094250635e+06 
4.799999999996e+01 4.890101788165e+06 
4.999999999996e+01 4.890122509930e+06 
5.199999999997e+01 4.890117265030e+06 
5.399999999997e+01 4.890130703264e+06 
5.599999999998e+01 4.890123399541e+06 
5.799999999998e+01 4.890065983033e+06 
5.999999999999e+01 4.890053387683e+06 
6.199999999999e+01 4.890050284829e+06 
6.400000000000e+01 4.890049200180e+06 
 ZONE T="TIME=1.200000001000e+03"
0.000000000000e+00 4.890120773833e+06 
1.999999999998e+00 4.890117228735e+06 
3.999999999993e+00 4.890141414753e+06 
5.999999999987e+00 4.890164609692e+06 
7.999999999981e+00 4.890212893595e+06 
9.999999999976e+00 4.890203777112e+06 
1.199999999997e+01 4.890167735012e+06 
1.399999999996e+01 4.890200563440e+06 
1.599999999996e+01 4.890202003270e+06 
1.799999999995e+01 4.890192059493e+06 
1.999999999995e+01 4.890192210352e+06 
2.199999999994e+01 4.890140796597e+06 
2.399999999994e+01 4.890093830516e+06 
2.599999999993e+01 4.890118324642e+06 
2.799999999992e+01 4.890121883388e+06 
2.999999999992e+01 4.890105313517e+06 
3.199999999991e+01 4.890114415330e+06 
3.399999999992e+01 4.890153670430e+06 
3.599999999992e+01 4.890159312006e+06 
3.799999999993e+01 4.890136397102e+06 
3.999999999993e+01 4.890116202989e+06 
4.199999999994e+01 4.890083115665e+06 
4.399999999995e+01 4.890085391844e+06 
4.599999999995e+01 4.890094250635e+06 
4.799999999996e+01 4.890101788165e+06 
4.999999999996e+01 4.890122509930e+06 
5.199999999997e+01 4.890117265030e+06 
5.399999999997e+01 4.890130703264e+06 
5.599999999998e+01 4.890123399541e+06 
5.799999999998e+01 4.890065983033e+06 
5.999999999999e+01 4.890053387683e+06 
6.199999999999e+01 4.890050284829e+06 
6.400000000000e+01 4.890049200180e+06 
 ZONE T="TIME=1.500000001000e+03"
0.000000000000e+00 4.890120773833e+06 
1.999999999998e+00 4.890117228735e+06 
3.999999999993e+00 4.890141414753e+06 
5.999999999987e+00 4.890164609692e+06 
7.999999999981e+00 4.890212893595e+06 
9.999999999976e+00 4.890203777112e+06 
1.199999999997e+01 4.890167735012e+06 
1.399999999996e+01 4.890200563440e+06 
1.599999999996e+01 4.890202003270e+06 
1.799999999995e+01 4.890192059493e+06 
1.999999999995e+01 4.890192210352e+06 
2.199999999994e+01 4.890140796597e+06 
2.399999999994e+01 4.890093830516e+06 
2.599999999993e+01 4.890118324642e+06 
2.799999999992e+01 4.890121883388e+06 
2.999999999992e+01 4.890105313517e+06 
3.199999999991e+01 4.890114415330e+06 
3.399999999992e+01 4.890153670430e+06 
3.599999999992e+01 4.890159312006e+06 
3.799999999993e+01 4.890136397102e+06 
3.999999999993e+01 4.890116202989e+06 
4.199999999994e+01 4.890083115665e+06 
4.399999999995e+01 4.890085391844e+06 
4.599999999995e+01 4.890094250635e+06 
4.799999999996e+01 4.890101788165e+06 
4.999999999996e+01 4.890122509930e+06 
5.199999999997e+01 4.890117265030e+06 
5.399999999997e+01 4.890130703264e+06 
5.599999999998e+01 4.890123399541e+06 
5.799999999998e+01 4.890065983033e+06 
5.999999999999e+01 4.890053387683e+06 
6.199999999999e+01 4.890050284829e+06 
6.400000000000e+01 4.890049200180e+06 
 ZONE T="TIME=1.800000001000e+03"
0.000000000000e+00 4.890120773833e+06 
1.999999999998e+00 4.890117228735e+06 
3.999999999993e+00 4.890141414753e+06 
5.999999999987e+00 4.890164609692e+06 
7.999999999981e+00 4.890212893595e+06 
9.999999999976e+00 4.890203777112e+06 
1.199999999997e+01 4.890167735012e+06 
1.399999999996e+01 4.890200563440e+06 
1.599999999996e+01 4.890202003270e+06 
1.799999999995e+01 4.890192059493e+06 
1.999999999995e+01 4.890192210352e+06 
2.199999999994e+01 4.890140796597e+06 
2.399999999994e+01 4.890093830516e+06 
2.599999999993e+01 4.890118324642e+06 
2.799999999992e+01 4.890121883388e+06 
2.999999999992e+01 4.890105313517e+06 
3.199999999991e+01 4.890114415330e+06 
3.399999999992e+01 4.890153670430e+06 
3.599999999992e+01 4.890159312006e+06 
3.799999999993e+01 4.890136397102e+06 
3.999999999993e+01 4.890116202989e+06 
4.199999999994e+01 4.890083115665e+06 
4.399999999995e+01 4.890085391844e+06 
4.599999999995e+01 4.890094250635e+06 
4.799999999996e+01 4.890101788165e+06 
4.999999999996e+01 4.890122509930e+06 
5.199999999997e+01 4.890117265030e+06 
5.399999999997e+01 4.890130703264e+06 
5.599999999998e+01 4.890123399541e+06 
5.799999999998e+01 4.890065983033e+06 
5.999999999999e+01 4.890053387683e+06 
6.199999999999e+01 4.890050284829e+06 
6.400000000000e+01 4.890049200180e+06 
 ZONE T="TIME=2.100000001000e+03"
0.000000000000e+00 4.890120773833e+06 
1.999999999998e+00 4.890117228735e+06 
3.999999999993e+00 4.890141414753e+06 
5.999999999987e+00 4.890164609692e+06 
7.999999999981e+00 4.890212893595e+06 
9.999999999976e+00 4.890203777112e+06 
1.199999999997e+01 4.890167735012e+06 
1.399999999996e+01 4.890200563440e+06 
1.599999999996e+01 4.890202003270e+06 
1.799999999995e+01 4.890192059493e+06 
1.999999999995e+01 4.890192210352e+06 
2.199999999994e+01 4.890140796597e+06 
2.399999999994e+01 4.890093830516e+06 
2.599999999993e+01 4.890118324642e+06 
2.799999999992e+01 4.890121883388e+06 
2.999999999992e+01 4.890105313517e+06 
3.199999999991e+01 4.890114415330e+06 
3.399999999992e+01 4.890153670430e+06 
3.599999999992e+01 4.890159312006e+06 
3.799999999993e+01 4.890136397102e+06 
3.999999999993e+01 4.890116202989e+06 
4.199999999994e+01 4.890083115665e+06 
4.399999999995e+01 4.890085391844e+06 
4.599999999995e+01 4.890094250635e+06 
4.799999999996e+01 4.890101788165e+06 
4.999999999996e+01 4.890122509930e+06 
5.199999999997e+01 4.890117265030e+06 
5.399999999997e+01 4.890130703264e+06 
5.599999999998e+01 4.890123399541e+06 
5.799999999998e+01 4.890065983033e+06 
5.999999999999e+01 4.890053387683e+06 
6.199999999999e+01 4.890050284829e+06 
6.400000000000e+01 4.890049200180e+06 
 ZONE T="TIME=2.400000001000e+03"
0.000000000000e+00 4.890120023313e+06 
1.999999999998e+00 4.890116438709e+06 
3.999999999993e+00 4.890141304546e+06 
5.999999999987e+00 4.890165403379e+06 
7.999999999981e+00 4.890216062084e+06 
9.999999999976e+00 4.890206419219e+06 
1.199999999997e+01 4.890168530145e+06 
1.399999999996e+01 4.890202398580e+06 
1.599999999996e+01 4.890203881126e+06 
1.799999999995e+01 4.890193523623e+06 
1.999999999995e+01 4.890193688650e+06 
2.199999999994e+01 4.890140710341e+06 
2.399999999994e+01 4.890092428233e+06 
2.599999999993e+01 4.890116892420e+06 
2.799999999992e+01 4.890120617785e+06 
2.999999999992e+01 4.890103741486e+06 
3.199999999991e+01 4.890113178970e+06 
3.399999999992e+01 4.890153614455e+06 
3.599999999992e+01 4.890159653672e+06 
3.799999999993e+01 4.890136305013e+06 
3.999999999993e+01 4.890115710260e+06 
4.199999999994e+01 4.890082356917e+06 
4.399999999995e+01 4.890084783556e+06 
4.599999999995e+01 4.890093449300e+06 
4.799999999996e+01 4.890100991319e+06 
4.999999999996e+01 4.890122344168e+06 
5.199999999997e+01 4.890117067243e+06 
5.399999999997e+01 4.890131190691e+06 
5.599999999998e+01 4.890123797300e+06 
5.799999999998e+01 4.890065302066e+06 
5.999999999999e+01 4.890052510363e+06 
6.199999999999e+01 4.890049313069e+06 
6.400000000000e+01 4.890048176504e+06 
 ZONE T="TIME=2.700000001000e+03"
0.000000000000e+00 4.890119302916e+06 
1.999999999998e+00 4.890115685018e+06 
3.999999999993e+00 4.890141200901e+06 
5.999999999987e+00 4.890166176532e+06 
7.999999999981e+00 4.890219175918e+06 
9.999999999976e+00 4.890209008625e+06 
1.199999999997e+01 4.890169295885e+06 
1.399999999996e+01 4.890204146689e+06 
1.599999999996e+01 4.890205664681e+06 
1.799999999995e+01 4.890194901068e+06 
1.999999999995e+01 4.890195076484e+06 
2.199999999994e+01 4.890140639437e+06 
2.399999999994e+01 4.890091108563e+06 
2.599999999993e+01 4.890115484824e+06 
2.799999999992e+01 4.890119360355e+06 
2.999999999992e+01 4.890102205441e+06 
3.199999999991e+01 4.890111968031e+06 
3.399999999992e+01 4.890153513826e+06 
3.599999999992e+01 4.890159946595e+06 
3.799999999993e+01 4.890136210604e+06 
3.999999999993e+01 4.890115239710e+06 
4.199999999994e+01 4.890081644524e+06 
4.399999999995e+01 4.890084219778e+06 
4.599999999995e+01 4.890092692300e+06 
4.799999999996e+01 4.890100226805e+06 
4.999999999996e+01 4.890122174757e+06 
5.199999999997e+01 4.890116872489e+06 
5.399999999997e+01 4.890131659450e+06 
5.599999999998e+01 4.890124182747e+06 
5.799999999998e+01 4.890064674334e+06 
5.999999999999e+01 4.890051694366e+06 
6.199999999999e+01 4.890048401476e+06 
6.400000000000e+01 4.890047209850e+06 
 ZONE T="TIME=3.000000001000e+03"
0.000000000000e+00 4.890118516371e+06 
1.999999999998e+00 4.890114862215e+06 
3.999999999993e+00 4.890141074251e+06 
5.999999999987e+00 4.890167043441e+06 
7.999999999981e+00 4.890222778199e+06 
9.999999999976e+00 4.890212043109e+06 
1.199999999997e+01 4.890170357833e+06 
1.399999999996e+01 4.890206402004e+06 
1.599999999996e+01 4.890208000144e+06 
1.799999999995e+01 4.890196800587e+06 
1.999999999995e+01 4.890196928097e+06 
2.199999999994e+01 4.890139356011e+06 
2.399999999994e+01 4.890088031237e+06 
2.599999999993e+01 4.890113744660e+06 
2.799999999992e+01 4.890118011258e+06 
2.999999999992e+01 4.890100566403e+06 
3.199999999991e+01 4.890110708143e+06 
3.399999999992e+01 4.890153480636e+06 
3.599999999992e+01 4.890160357754e+06 
3.799999999993e+01 4.890136199809e+06 
3.999999999993e+01 4.890114801429e+06 
4.199999999994e+01 4.890080925773e+06 
4.399999999995e+01 4.890083661158e+06 
4.599999999995e+01 4.890091912161e+06 
4.799999999996e+01 4.890099423963e+06 
4.999999999996e+01 4.890122022115e+06 
5.199999999997e+01 4.890116694150e+06 
5.399999999997e+01 4.890132221928e+06 
5.599999999998e+01 4.890124653730e+06 
5.799999999998e+01 4.890064029941e+06 
5.999999999999e+01 4.890050837680e+06 
6.199999999999e+01 4.890047433073e+06 
6.400000000000e+01 4.890046175035e+06 
 ZONE T="TIME=3.300000001000e+03"
0.000000000000e+00 4.890117704274e+06 
1.999999999998e+00 4.890114026092e+06 
3.999999999993e+00 4.890140978736e+06 
5.999999999987e+00 4.890167964877e+06 
7.999999999981e+00 4.890226494933e+06 
9.999999999976e+00 4.890215110439e+06 
1.199999999997e+01 4.890171202625e+06 
1.399999999996e+01 4.890208292747e+06 
1.599999999996e+01 4.890209904862e+06 
1.799999999995e+01 4.890198214948e+06 
1.999999999995e+01 4.890198353603e+06 
2.199999999994e+01 4.890139569765e+06 
2.399999999994e+01 4.890086961318e+06 
2.599999999993e+01 4.890112107601e+06 
2.799999999992e+01 4.890116468497e+06 
2.999999999992e+01 4.890098741777e+06 
3.199999999991e+01 4.890109253622e+06 
3.399999999992e+01 4.890153215575e+06 
3.599999999992e+01 4.890160567070e+06 
3.799999999993e+01 4.890136050875e+06 
3.999999999993e+01 4.890114249517e+06 
4.199999999994e+01 4.890080134874e+06 
4.399999999995e+01 4.890083048336e+06 
4.599999999995e+01 4.890091062478e+06 
4.799999999996e+01 4.890098537266e+06 
4.999999999996e+01 4.890121778806e+06 
5.199999999997e+01 4.890116437894e+06 
5.399999999997e+01 4.890132730127e+06 
5.599999999998e+01 4.890125075307e+06 
5.799999999998e+01 4.890063364430e+06 
5.999999999999e+01 4.890049962474e+06 
6.199999999999e+01 4.890046440644e+06 
6.400000000000e+01 4.890045108685e+06 
 ZONE T="TIME=3.600000001000e+03"
0.000000000000e+00 4.890116928249e+06 
1.999999999998e+00 4.890113234115e+06 
3.999999999993e+00 4.890140898405e+06 
5.999999999987e+00 4.890168872245e+06 
7.999999999981e+00 4.890230158684e+06 
9.999999999976e+00 4.890218128773e+06 
1.199999999997e+01 4.890172024420e+06 
1.399999999996e+01 4.890210093745e+06 
1.599999999996e+01 4.890211711085e+06 
1.799999999995e+01 4.890199538692e+06 
1.999999999995e+01 4.890199680775e+06 
2.199999999994e+01 4.890139764426e+06 
2.399999999994e+01 4.890085937074e+06 
2.599999999993e+01 4.890110511612e+06 
2.799999999992e+01 4.890114948579e+06 
2.999999999992e+01 4.890096968112e+06 
3.199999999991e+01 4.890107836521e+06 
3.399999999992e+01 4.890152904482e+06 
3.599999999992e+01 4.890160724170e+06 
3.799999999993e+01 4.890135903477e+06 
3.999999999993e+01 4.890113724048e+06 
4.199999999994e+01 4.890079391693e+06 
4.399999999995e+01 4.890082479332e+06 
4.599999999995e+01 4.890090259528e+06 
4.799999999996e+01 4.890097685338e+06 
4.999999999996e+01 4.890121528054e+06 
5.199999999997e+01 4.890116182251e+06 
5.399999999997e+01 4.890133212736e+06 
5.599999999998e+01 4.890125478172e+06 
5.799999999998e+01 4.890062750721e+06 
5.999999999999e+01 4.890049149219e+06 
6.199999999999e+01 4.890045511894e+06 
6.400000000000e+01 4.890044104183e+06 
 ZONE T="TIME=3.900000001000e+03"
0.000000000000e+00 4.890116070169e+06 
1.999999999998e+00 4.890112367489e+06 
3.999999999993e+00 4.890140821760e+06 
5.999999999987e+00 4.890169902168e+06 
7.999999999981e+00 4.890234322124e+06 
9.999999999976e+00 4.890221553225e+06 
1.199999999997e+01 4.890172944602e+06 
1.399999999996e+01 4.890212066011e+06 
1.599999999996e+01 4.890213678976e+06 
1.799999999995e+01 4.890200959111e+06 
1.999999999995e+01 4.890201095677e+06 
2.199999999994e+01 4.890139963719e+06 
2.399999999994e+01 4.890084807416e+06 
2.599999999993e+01 4.890108721977e+06 
2.799999999992e+01 4.890113225579e+06 
2.999999999992e+01 4.890094982911e+06 
3.199999999991e+01 4.890106247150e+06 
3.399999999992e+01 4.890152496429e+06 
3.599999999992e+01 4.890160849083e+06 
3.799999999993e+01 4.890135738174e+06 
3.999999999993e+01 4.890113149648e+06 
4.199999999994e+01 4.890078587657e+06 
4.399999999995e+01 4.890081871817e+06 
4.599999999995e+01 4.890089387091e+06 
4.799999999996e+01 4.890096744066e+06 
4.999999999996e+01 4.890121233028e+06 
5.199999999997e+01 4.890115890594e+06 
5.399999999997e+01 4.890133742846e+06 
5.599999999998e+01 4.890125923636e+06 
5.799999999998e+01 4.890062099692e+06 
5.999999999999e+01 4.890048279539e+06 
6.199999999999e+01 4.890044512294e+06 
6.400000000000e+01 4.890043016042e+06 
 ZONE T="TIME=4.200000001000e+03"
0.000000000000e+00 4.890120773833e+06 
1.999999999998e+00 4.890117228735e+06 
3.999999999993e+00 4.890141414753e+06 
5.999999999987e+00 4.890164609692e+06 
7.999999999981e+00 4.890212893595e+06 
9.999999999976e+00 4.890203777112e+06 
1.199999999997e+01 4.890167735012e+06 
1.399999999996e+01 4.890200563440e+06 
1.599999999996e+01 4.890202003269e+06 
1.799999999995e+01 4.890192059493e+06 
1.999999999995e+01 4.890192210352e+06 
2.199999999994e+01 4.890140796597e+06 
2.399999999994e+01 4.890093830516e+06 
2.599999999993e+01 4.890118324642e+06 
2.799999999992e+01 4.890121883388e+06 
2.999999999992e+01 4.890105313517e+06 
3.199999999991e+01 4.890114415330e+06 
3.399999999992e+01 4.890153670430e+06 
3.599999999992e+01 4.890159312006e+06 
3.799999999993e+01 4.890136397102e+06 
3.999999999993e+01 4.890116202989e+06 
4.199999999994e+01 4.890083115665e+06 
4.399999999995e+01 4.890085391844e+06 
4.599999999995e+01 4.890094250635e+06 
4.799999999996e+01 4.890101788165e+06 
4.999999999996e+01 4.890122509930e+06 
5.199999999997e+01 4.890117265030e+06 
5.399999999997e+01 4.890130703264e+06 
5.599999999998e+01 4.890123399541e+06 
5.799999999998e+01 4.890065983033e+06 
5.999999999999e+01 4.890053387683e+06 
6.199999999999e+01 4.890050284829e+06 
6.400000000000e+01 4.890049200180e+06 
 ZONE T="TIME=4.500000001000e+03"
0.000000000000e+00 4.890118193970e+06 
1.999999999998e+00 4.890114529437e+06 
3.999999999993e+00 4.890141035013e+06 
5.999999999987e+00 4.890167405823e+06 
7.999999999981e+00 4.890224239167e+06 
9.999999999976e+00 4.890213249507e+06 
1.199999999997e+01 4.890170691258e+06 
1.399999999996e+01 4.890207152958e+06 
1.599999999996e+01 4.890208757626e+06 
1.799999999995e+01 4.890197365201e+06 
1.999999999995e+01 4.890197497985e+06 
2.199999999994e+01 4.890139441866e+06 
2.399999999994e+01 4.890087606877e+06 
2.599999999993e+01 4.890113099220e+06 
2.799999999992e+01 4.890117404966e+06 
2.999999999992e+01 4.890099846222e+06 
3.199999999991e+01 4.890110134465e+06 
3.399999999992e+01 4.890153382813e+06 
3.599999999992e+01 4.890160446315e+06 
3.799999999993e+01 4.890136141478e+06 
3.999999999993e+01 4.890114582230e+06 
4.199999999994e+01 4.890080610249e+06 
4.399999999995e+01 4.890083415788e+06 
4.599999999995e+01 4.890091573826e+06 
4.799999999996e+01 4.890099072693e+06 
4.999999999996e+01 4.890121927885e+06 
5.199999999997e+01 4.890116593841e+06 
5.399999999997e+01 4.890132423992e+06 
5.599999999998e+01 4.890124821020e+06 
5.799999999998e+01 4.890063762881e+06 
5.999999999999e+01 4.890050487309e+06 
6.199999999999e+01 4.890047036692e+06 
6.400000000000e+01 4.890045750006e+06 
 ZONE T="TIME=4.800000001000e+03"
0.000000000000e+00 4.890115393021e+06 
1.999999999998e+00 4.890111690824e+06 
3.999999999993e+00 4.890140808843e+06 
5.999999999987e+00 4.890170822404e+06 
7.999999999981e+00 4.890237913069e+06 
9.999999999976e+00 4.890224512271e+06 
1.199999999997e+01 4.890173765234e+06 
1.399999999996e+01 4.890213740410e+06 
1.599999999996e+01 4.890215342573e+06 
1.799999999995e+01 4.890202157677e+06 
1.999999999995e+01 4.890202283095e+06 
2.199999999994e+01 4.890140160553e+06 
2.399999999994e+01 4.890083909928e+06 
2.599999999993e+01 4.890107272520e+06 
2.799999999992e+01 4.890111820187e+06 
2.999999999992e+01 4.890093371663e+06 
3.199999999991e+01 4.890104972670e+06 
3.399999999992e+01 4.890152190563e+06 
3.599999999992e+01 4.890161004399e+06 
3.799999999993e+01 4.890135683185e+06 
3.999999999993e+01 4.890112751470e+06 
4.199999999994e+01 4.890077980938e+06 
4.399999999995e+01 4.890081422150e+06 
4.599999999995e+01 4.890088686369e+06 
4.799999999996e+01 4.890095878196e+06 
4.999999999996e+01 4.890120721396e+06 
5.199999999997e+01 4.890115324226e+06 
5.399999999997e+01 4.890133788144e+06 
5.599999999998e+01 4.890125909031e+06 
5.799999999998e+01 4.890061514852e+06 
5.999999999999e+01 4.890047629858e+06 
6.199999999999e+01 4.890043838733e+06 
6.400000000000e+01 4.890042289308e+06 
 ZONE T="TIME=5.100000001000e+03"
0.000000000000e+00 4.890112181828e+06 
1.999999999998e+00 4.890108590268e+06 
3.999999999993e+00 4.890140714562e+06 
5.999999999987e+00 4.890174999243e+06 
7.999999999981e+00 4.890254655303e+06 
9.999999999976e+00 4.890238236169e+06 
1.199999999997e+01 4.890177289424e+06 
1.399999999996e+01 4.890220663820e+06 
1.599999999996e+01 4.890222093677e+06 
1.799999999995e+01 4.890206709418e+06 
1.999999999995e+01 4.890206661139e+06 
2.199999999994e+01 4.890140591856e+06 
2.399999999994e+01 4.890079832492e+06 
2.599999999993e+01 4.890100551158e+06 
2.799999999992e+01 4.890105098923e+06 
2.999999999992e+01 4.890085883117e+06 
3.199999999991e+01 4.890098946499e+06 
3.399999999992e+01 4.890149955044e+06 
3.599999999992e+01 4.890160923607e+06 
3.799999999993e+01 4.890135143777e+06 
3.999999999993e+01 4.890110791280e+06 
4.199999999994e+01 4.890075253422e+06 
4.399999999995e+01 4.890079467339e+06 
4.599999999995e+01 4.890085727195e+06 
4.799999999996e+01 4.890092528831e+06 
4.999999999996e+01 4.890119555231e+06 
5.199999999997e+01 4.890114221180e+06 
5.399999999997e+01 4.890135605702e+06 
5.599999999998e+01 4.890127403190e+06 
5.799999999998e+01 4.890059498703e+06 
5.999999999999e+01 4.890044775563e+06 
6.199999999999e+01 4.890040233996e+06 
6.400000000000e+01 4.890038033102e+06 
 ZONE T="TIME=5.400000001000e+03"
0.000000000000e+00 4.890108198144e+06 
1.999999999998e+00 4.890105021556e+06 
3.999999999993e+00 4.890140846331e+06 
5.999999999987e+00 4.890180322196e+06 
7.999999999981e+00 4.890275600086e+06 
9.999999999976e+00 4.890255395719e+06 
1.199999999997e+01 4.890181432963e+06 
1.399999999996e+01 4.890227800468e+06 
1.599999999996e+01 4.890228767746e+06 
1.799999999995e+01 4.890210642119e+06 
1.999999999995e+01 4.890210134620e+06 
2.199999999994e+01 4.890140500581e+06 
2.399999999994e+01 4.890075507084e+06 
2.599999999993e+01 4.890093275766e+06 
2.799999999992e+01 4.890097438049e+06 
2.999999999992e+01 4.890077505521e+06 
3.199999999991e+01 4.890092193913e+06 
3.399999999992e+01 4.890146667173e+06 
3.599999999992e+01 4.890160362206e+06 
3.799999999993e+01 4.890134927478e+06 
3.999999999993e+01 4.890108970018e+06 
4.199999999994e+01 4.890072457183e+06 
4.399999999995e+01 4.890077407545e+06 
4.599999999995e+01 4.890082400485e+06 
4.799999999996e+01 4.890088177782e+06 
4.999999999996e+01 4.890117018948e+06 
5.199999999997e+01 4.890112224590e+06 
5.399999999997e+01 4.890137574123e+06 
5.599999999998e+01 4.890129186771e+06 
5.799999999998e+01 4.890057370580e+06 
5.999999999999e+01 4.890041932724e+06 
6.199999999999e+01 4.890037166924e+06 
6.400000000000e+01 4.890034760550e+06 
 ZONE T="TIME=5.700000001000e+03"
0.000000000000e+00 4.890102941301e+06 
1.999999999998e+00 4.890100686794e+06 
3.999999999993e+00 4.890141183723e+06 
5.999999999987e+00 4.890187358204e+06 
7.999999999981e+00 4.890303276179e+06 
9.999999999976e+00 4.890278369588e+06 
1.199999999997e+01 4.890187735911e+06 
1.399999999996e+01 4.890237107992e+06 
1.599999999996e+01 4.890237391586e+06 
1.799999999995e+01 4.890215857383e+06 
1.999999999995e+01 4.890214435147e+06 
2.199999999994e+01 4.890140091717e+06 
2.399999999994e+01 4.890067496049e+06 
2.599999999993e+01 4.890079205879e+06 
2.799999999992e+01 4.890084640368e+06 
2.999999999992e+01 4.890065761786e+06 
3.199999999991e+01 4.890082297232e+06 
3.399999999992e+01 4.890138226410e+06 
3.599999999992e+01 4.890154897044e+06 
3.799999999993e+01 4.890133335512e+06 
3.999999999993e+01 4.890106374796e+06 
4.199999999994e+01 4.890069448108e+06 
4.399999999995e+01 4.890076332987e+06 
4.599999999995e+01 4.890080474791e+06 
4.799999999996e+01 4.890085535450e+06 
4.999999999996e+01 4.890116674230e+06 
5.199999999997e+01 4.890112146051e+06 
5.399999999997e+01 4.890141457981e+06 
5.599999999998e+01 4.890132631195e+06 
5.799999999998e+01 4.890055871667e+06 
5.999999999999e+01 4.890039475854e+06 
6.199999999999e+01 4.890034538944e+06 
6.400000000000e+01 4.890031842774e+06 
 ZONE T="TIME=6.000000001000e+03"
0.000000000000e+00 4.890094230125e+06 
1.999999999998e+00 4.890094173217e+06 
3.999999999993e+00 4.890141784602e+06 
5.999999999987e+00 4.890196770567e+06 
7.999999999981e+00 4.890337969981e+06 
9.999999999976e+00 4.890305497904e+06 
1.199999999997e+01 4.890191691358e+06 
1.399999999996e+01 4.890242620248e+06 
1.599999999996e+01 4.890241118906e+06 
1.799999999995e+01 4.890214718078e+06 
1.999999999995e+01 4.890211461888e+06 
2.199999999994e+01 4.890137108003e+06 
2.399999999994e+01 4.890066036774e+06 
2.599999999993e+01 4.890079492677e+06 
2.799999999992e+01 4.890073026964e+06 
2.999999999992e+01 4.890045573333e+06 
3.199999999991e+01 4.890071020979e+06 
3.399999999992e+01 4.890136853703e+06 
3.599999999992e+01 4.890157436971e+06 
3.799999999993e+01 4.890137713596e+06 
3.999999999993e+01 4.890107560038e+06 
4.199999999994e+01 4.890067635010e+06 
4.399999999995e+01 4.890074984803e+06 
4.599999999995e+01 4.890076258365e+06 
4.799999999996e+01 4.890079827265e+06 
4.999999999996e+01 4.890114200625e+06 
5.199999999997e+01 4.890110856813e+06 
5.399999999997e+01 4.890146648163e+06 
5.599999999998e+01 4.890134811929e+06 
5.799999999998e+01 4.890048421645e+06 
5.999999999999e+01 4.890031948375e+06 
6.199999999999e+01 4.890031522388e+06 
6.400000000000e+01 4.890027696729e+06 
 ZONE T="TIME=6.300000001000e+03"