 TITLE = "Profiles along polylines"
 VARIABLES = "DIST" "PRESSURE1" 
 ZONE T="TIME=0.000000000000e+00"
0.000000000000e+00 0.000000000000e+00 
1.999999999998e+00 0.000000000000e+00 
3.999999999993e+00 0.000000000000e+00 
5.999999999987e+00 0.000000000000e+00 
7.999999999981e+00 0.000000000000e+00 
9.999999999976e+00 0.000000000000e+00 
1.199999999997e+01 0.000000000000e+00 
1.399999999996e+01 0.000000000000e+00 
1.599999999996e+01 0.000000000000e+00 
1.799999999995e+01 0.000000000000e+00 
1.999999999995e+01 0.000000000000e+00 
2.199999999994e+01 0.000000000000e+00 
2.399999999994e+01 0.000000000000e+00 
2.599999999993e+01 0.000000000000e+00 
2.799999999992e+01 0.000000000000e+00 
2.999999999992e+01 0.000000000000e+00 
3.199999999991e+01 0.000000000000e+00 
3.399999999992e+01 0.000000000000e+00 
3.599999999992e+01 0.000000000000e+00 
3.799999999993e+01 0.000000000000e+00 
3.999999999993e+01 0.000000000000e+00 
4.199999999994e+01 0.000000000000e+00 
4.399999999995e+01 0.000000000000e+00 
4.599999999995e+01 0.000000000000e+00 
4.799999999996e+01 0.000000000000e+00 
4.999999999996e+01 0.000000000000e+00 
5.199999999997e+01 0.000000000000e+00 
5.399999999997e+01 0.000000000000e+00 
5.599999999998e+01 0.000000000000e+00 
5.799999999998e+01 0.000000000000e+00 
5.999999999999e+01 0.000000000000e+00 
6.199999999999e+01 0.000000000000e+00 
6.400000000000e+01 0.000000000000e+00 
 TITLE = "Profiles along polylines"
 VARIABLES = "DIST" "PRESSURE1" 
 ZONE T="TIME=1.000000000000e-06"
0.000000000000e+00 4.890120557157e+06 
1.999999999998e+00 4.890117015712e+06 
3.999999999993e+00 4.890141157768e+06 
5.999999999987e+00 4.890164307873e+06 
7.999999999981e+00 4.890212495819e+06 
9.999999999976e+00 4.890203398642e+06 
1.199999999997e+01 4.890167448754e+06 
1.399999999996e+01 4.890200274503e+06 
1.599999999996e+01 4.890201757086e+06 
1.799999999995e+01 4.890191850433e+06 
1.999999999995e+01 4.890191965332e+06 
2.199999999994e+01 4.890140584197e+06 
2.399999999994e+01 4.890093639064e+06 
2.599999999993e+01 4.890118030922e+06 
2.799999999992e+01 4.890121558158e+06 
2.999999999992e+01 4.890105015625e+06 
3.199999999991e+01 4.890114077779e+06 
3.399999999992e+01 4.890153202789e+06 
3.599999999992e+01 4.890158818014e+06 
3.799999999993e+01 4.890135994285e+06 
3.999999999993e+01 4.890115999157e+06 
4.199999999994e+01 4.890083367948e+06 
4.399999999995e+01 4.890085564590e+06 
4.599999999995e+01 4.890094061222e+06 
4.799999999996e+01 4.890101452020e+06 
4.999999999996e+01 4.890122093387e+06 
5.199999999997e+01 4.890116962266e+06 
5.399999999997e+01 4.890130661862e+06 
5.599999999998e+01 4.890123481916e+06 
5.799999999998e+01 4.890066707125e+06 
5.999999999999e+01 4.890054930512e+06 
6.199999999999e+01 4.890053181384e+06 
6.400000000000e+01 4.890052747746e+06 
 ZONE T="TIME=3.000000010000e+02"
0.000000000000e+00 4.890120557157e+06 
1.999999999998e+00 4.890117015712e+06 
3.999999999993e+00 4.890141157768e+06 
5.999999999987e+00 4.890164307873e+06 
7.999999999981e+00 4.890212495819e+06 
9.999999999976e+00 4.890203398642e+06 
1.199999999997e+01 4.890167448754e+06 
1.399999999996e+01 4.890200274503e+06 
1.599999999996e+01 4.890201757086e+06 
1.799999999995e+01 4.890191850433e+06 
1.999999999995e+01 4.890191965332e+06 
2.199999999994e+01 4.890140584197e+06 
2.399999999994e+01 4.890093639064e+06 
2.599999999993e+01 4.890118030922e+06 
2.799999999992e+01 4.890121558158e+06 
2.999999999992e+01 4.890105015625e+06 
3.199999999991e+01 4.890114077779e+06 
3.399999999992e+01 4.890153202789e+06 
3.599999999992e+01 4.890158818014e+06 
3.799999999993e+01 4.890135994285e+06 
3.999999999993e+01 4.890115999157e+06 
4.199999999994e+01 4.890083367948e+06 
4.399999999995e+01 4.890085564590e+06 
4.599999999995e+01 4.890094061222e+06 
4.799999999996e+01 4.890101452020e+06 
4.999999999996e+01 4.890122093388e+06 
5.199999999997e+01 4.890116962267e+06 
5.399999999997e+01 4.890130661862e+06 
5.599999999998e+01 4.890123481916e+06 
5.799999999998e+01 4.890066707125e+06 
5.999999999999e+01 4.890054930512e+06 
6.199999999999e+01 4.890053181384e+06 
6.400000000000e+01 4.890052747746e+06 
 ZONE T="TIME=6.000000010000e+02"
0.000000000000e+00 4.890120557157e+06 
1.999999999998e+00 4.890117015712e+06 
3.999999999993e+00 4.890141157768e+06 
5.999999999987e+00 4.890164307873e+06 
7.999999999981e+00 4.890212495819e+06 
9.999999999976e+00 4.890203398642e+06 
1.199999999997e+01 4.890167448754e+06 
1.399999999996e+01 4.890200274503e+06 
1.599999999996e+01 4.890201757086e+06 
1.799999999995e+01 4.890191850433e+06 
1.999999999995e+01 4.890191965332e+06 
2.199999999994e+01 4.890140584197e+06 
2.399999999994e+01 4.890093639064e+06 
2.599999999993e+01 4.890118030922e+06 
2.799999999992e+01 4.890121558158e+06 
2.999999999992e+01 4.890105015625e+06 
3.199999999991e+01 4.890114077779e+06 
3.399999999992e+01 4.890153202789e+06 
3.599999999992e+01 4.890158818014e+06 
3.799999999993e+01 4.890135994285e+06 
3.999999999993e+01 4.890115999157e+06 
4.199999999994e+01 4.890083367948e+06 
4.399999999995e+01 4.890085564590e+06 
4.599999999995e+01 4.890094061222e+06 
4.799999999996e+01 4.890101452020e+06 
4.999999999996e+01 4.890122093388e+06 
5.199999999997e+01 4.890116962267e+06 
5.399999999997e+01 4.890130661862e+06 
5.599999999998e+01 4.890123481916e+06 
5.799999999998e+01 4.890066707125e+06 
5.999999999999e+01 4.890054930512e+06 
6.199999999999e+01 4.890053181384e+06 
6.400000000000e+01 4.890052747746e+06 
 ZONE T="TIME=9.000000010000e+02"
0.000000000000e+00 4.890120557157e+06 
1.999999999998e+00 4.890117015712e+06 
3.999999999993e+00 4.890141157768e+06 
5.999999999987e+00 4.890164307873e+06 
7.999999999981e+00 4.890212495819e+06 
9.999999999976e+00 4.890203398642e+06 
1.199999999997e+01 4.890167448754e+06 
1.399999999996e+01 4.890200274503e+06 
1.599999999996e+01 4.890201757086e+06 
1.799999999995e+01 4.890191850433e+06 
1.999999999995e+01 4.890191965332e+06 
2.199999999994e+01 4.890140584197e+06 
2.399999999994e+01 4.890093639064e+06 
2.599999999993e+01 4.890118030922e+06 
2.799999999992e+01 4.890121558158e+06 
2.999999999992e+01 4.890105015625e+06 
3.199999999991e+01 4.890114077779e+06 
3.399999999992e+01 4.890153202789e+06 
3.599999999992e+01 4.890158818014e+06 
3.799999999993e+01 4.890135994285e+06 
3.999999999993e+01 4.890115999157e+06 
4.199999999994e+01 4.890083367948e+06 
4.399999999995e+01 4.890085564590e+06 
4.599999999995e+01 4.890094061222e+06 
4.799999999996e+01 4.890101452020e+06 
4.999999999996e+01 4.890122093388e+06 
5.199999999997e+01 4.890116962267e+06 
5.399999999997e+01 4.890130661862e+06 
5.599999999998e+01 4.890123481916e+06 
5.799999999998e+01 4.890066707125e+06 
5.999999999999e+01 4.890054930512e+06 
6.199999999999e+01 4.890053181384e+06 
6.400000000000e+01 4.890052747746e+06 
 ZONE T="TIME=1.200000001000e+03"
0.000000000000e+00 4.890120557157e+06 
1.999999999998e+00 4.890117015712e+06 
3.999999999993e+00 4.890141157768e+06 
5.999999999987e+00 4.890164307873e+06 
7.999999999981e+00 4.890212495819e+06 
9.999999999976e+00 4.890203398642e+06 
1.199999999997e+01 4.890167448754e+06 
1.399999999996e+01 4.890200274503e+06 
1.599999999996e+01 4.890201757086e+06 
1.799999999995e+01 4.890191850433e+06 
1.999999999995e+01 4.890191965332e+06 
2.199999999994e+01 4.890140584197e+06 
2.399999999994e+01 4.890093639064e+06 
2.599999999993e+01 4.890118030922e+06 
2.799999999992e+01 4.890121558158e+06 
2.999999999992e+01 4.890105015625e+06 
3.199999999991e+01 4.890114077779e+06 
3.399999999992e+01 4.890153202789e+06 
3.599999999992e+01 4.890158818014e+06 
3.799999999993e+01 4.890135994285e+06 
3.999999999993e+01 4.890115999157e+06 
4.199999999994e+01 4.890083367948e+06 
4.399999999995e+01 4.890085564590e+06 
4.599999999995e+01 4.890094061222e+06 
4.799999999996e+01 4.890101452020e+06 
4.999999999996e+01 4.890122093388e+06 
5.199999999997e+01 4.890116962267e+06 
5.399999999997e+01 4.890130661862e+06 
5.599999999998e+01 4.890123481916e+06 
5.799999999998e+01 4.890066707125e+06 
5.999999999999e+01 4.890054930512e+06 
6.199999999999e+01 4.890053181384e+06 
6.400000000000e+01 4.890052747746e+06 
 ZONE T="TIME=1.500000001000e+03"
0.000000000000e+00 4.890120557157e+06 
1.999999999998e+00 4.890117015712e+06 
3.999999999993e+00 4.890141157768e+06 
5.999999999987e+00 4.890164307873e+06 
7.999999999981e+00 4.890212495819e+06 
9.999999999976e+00 4.890203398642e+06 
1.199999999997e+01 4.890167448754e+06 
1.399999999996e+01 4.890200274503e+06 
1.599999999996e+01 4.890201757086e+06 
1.799999999995e+01 4.890191850433e+06 
1.999999999995e+01 4.890191965332e+06 
2.199999999994e+01 4.890140584197e+06 
2.399999999994e+01 4.890093639064e+06 
2.599999999993e+01 4.890118030922e+06 
2.799999999992e+01 4.890121558158e+06 
2.999999999992e+01 4.890105015625e+06 
3.199999999991e+01 4.890114077779e+06 
3.399999999992e+01 4.890153202789e+06 
3.599999999992e+01 4.890158818014e+06 
3.799999999993e+01 4.890135994285e+06 
3.999999999993e+01 4.890115999157e+06 
4.199999999994e+01 4.890083367948e+06 
4.399999999995e+01 4.890085564590e+06 
4.599999999995e+01 4.890094061222e+06 
4.799999999996e+01 4.890101452020e+06 
4.999999999996e+01 4.890122093388e+06 
5.199999999997e+01 4.890116962267e+06 
5.399999999997e+01 4.890130661862e+06 
5.599999999998e+01 4.890123481916e+06 
5.799999999998e+01 4.890066707125e+06 
5.999999999999e+01 4.890054930512e+06 
6.199999999999e+01 4.890053181384e+06 
6.400000000000e+01 4.890052747746e+06 
 ZONE T="TIME=1.800000001000e+03"
0.000000000000e+00 4.890120557157e+06 
1.999999999998e+00 4.890117015712e+06 
3.999999999993e+00 4.890141157768e+06 
5.999999999987e+00 4.890164307873e+06 
7.999999999981e+00 4.890212495819e+06 
9.999999999976e+00 4.890203398642e+06 
1.199999999997e+01 4.890167448754e+06 
1.399999999996e+01 4.890200274503e+06 
1.599999999996e+01 4.890201757086e+06 
1.799999999995e+01 4.890191850433e+06 
1.999999999995e+01 4.890191965332e+06 
2.199999999994e+01 4.890140584197e+06 
2.399999999994e+01 4.890093639064e+06 
2.599999999993e+01 4.890118030922e+06 
2.799999999992e+01 4.890121558158e+06 
2.999999999992e+01 4.890105015625e+06 
3.199999999991e+01 4.890114077779e+06 
3.399999999992e+01 4.890153202789e+06 
3.599999999992e+01 4.890158818014e+06 
3.799999999993e+01 4.890135994285e+06 
3.999999999993e+01 4.890115999157e+06 
4.199999999994e+01 4.890083367948e+06 
4.399999999995e+01 4.890085564590e+06 
4.599999999995e+01 4.890094061222e+06 
4.799999999996e+01 4.890101452020e+06 
4.999999999996e+01 4.890122093388e+06 
5.199999999997e+01 4.890116962267e+06 
5.399999999997e+01 4.890130661862e+06 
5.599999999998e+01 4.890123481916e+06 
5.799999999998e+01 4.890066707125e+06 
5.999999999999e+01 4.890054930512e+06 
6.199999999999e+01 4.890053181384e+06 
6.400000000000e+01 4.890052747746e+06 
 ZONE T="TIME=2.100000001000e+03"
0.000000000000e+00 4.890120557157e+06 
1.999999999998e+00 4.890117015712e+06 
3.999999999993e+00 4.890141157768e+06 
5.999999999987e+00 4.890164307873e+06 
7.999999999981e+00 4.890212495819e+06 
9.999999999976e+00 4.890203398642e+06 
1.199999999997e+01 4.890167448754e+06 
1.399999999996e+01 4.890200274503e+06 
1.599999999996e+01 4.890201757086e+06 
1.799999999995e+01 4.890191850433e+06 
1.999999999995e+01 4.890191965332e+06 
2.199999999994e+01 4.890140584197e+06 
2.399999999994e+01 4.890093639064e+06 
2.599999999993e+01 4.890118030922e+06 
2.799999999992e+01 4.890121558158e+06 
2.999999999992e+01 4.890105015625e+06 
3.199999999991e+01 4.890114077779e+06 
3.399999999992e+01 4.890153202789e+06 
3.599999999992e+01 4.890158818014e+06 
3.799999999993e+01 4.890135994285e+06 
3.999999999993e+01 4.890115999157e+06 
4.199999999994e+01 4.890083367948e+06 
4.399999999995e+01 4.890085564590e+06 
4.599999999995e+01 4.890094061222e+06 
4.799999999996e+01 4.890101452020e+06 
4.999999999996e+01 4.890122093388e+06 
5.199999999997e+01 4.890116962267e+06 
5.399999999997e+01 4.890130661862e+06 
5.599999999998e+01 4.890123481916e+06 
5.799999999998e+01 4.890066707125e+06 
5.999999999999e+01 4.890054930512e+06 
6.199999999999e+01 4.890053181384e+06 
6.400000000000e+01 4.890052747746e+06 
 ZONE T="TIME=2.400000001000e+03"
0.000000000000e+00 4.890119793110e+06 
1.999999999998e+00 4.890116212494e+06 
3.999999999993e+00 4.890141030325e+06 
5.999999999987e+00 4.890165079817e+06 
7.999999999981e+00 4.890215631972e+06 
9.999999999976e+00 4.890206011069e+06 
1.199999999997e+01 4.890168224807e+06 
1.399999999996e+01 4.890202090934e+06 
1.599999999996e+01 4.890203619996e+06 
1.799999999995e+01 4.890193302202e+06 
1.999999999995e+01 4.890193427418e+06 
2.199999999994e+01 4.890140485047e+06 
2.399999999994e+01 4.890092227430e+06 
2.599999999993e+01 4.890116581736e+06 
2.799999999992e+01 4.890120272840e+06 
2.999999999992e+01 4.890103426668e+06 
3.199999999991e+01 4.890112820865e+06 
3.399999999992e+01 4.890153113564e+06 
3.599999999992e+01 4.890159123374e+06 
3.799999999993e+01 4.890135875166e+06 
3.999999999993e+01 4.890115500231e+06 
4.199999999994e+01 4.890082637301e+06 
4.399999999995e+01 4.890084972971e+06 
4.599999999995e+01 4.890093246517e+06 
4.799999999996e+01 4.890100626188e+06 
4.999999999996e+01 4.890121885887e+06 
5.199999999997e+01 4.890116731023e+06 
5.399999999997e+01 4.890131132767e+06 
5.599999999998e+01 4.890123872159e+06 
5.799999999998e+01 4.890066065023e+06 
5.999999999999e+01 4.890054150388e+06 
6.199999999999e+01 4.890052428507e+06 
6.400000000000e+01 4.890052010701e+06 
 ZONE T="TIME=2.700000001000e+03"
0.000000000000e+00 4.890119063248e+06 
1.999999999998e+00 4.890115449529e+06 
3.999999999993e+00 4.890140913904e+06 
5.999999999987e+00 4.890165836061e+06 
7.999999999981e+00 4.890218718855e+06 
9.999999999976e+00 4.890208575925e+06 
1.199999999997e+01 4.890168975624e+06 
1.399999999996e+01 4.890203825107e+06 
1.599999999996e+01 4.890205393196e+06 
1.799999999995e+01 4.890194671183e+06 
1.999999999995e+01 4.890194802366e+06 
2.199999999994e+01 4.890140403464e+06 
2.399999999994e+01 4.890090899726e+06 
2.599999999993e+01 4.890115158270e+06 
2.799999999992e+01 4.890118996327e+06 
2.999999999992e+01 4.890101873675e+06 
3.199999999991e+01 4.890111588454e+06 
3.399999999992e+01 4.890152977041e+06 
3.599999999992e+01 4.890159376551e+06 
3.799999999993e+01 4.890135750523e+06 
3.999999999993e+01 4.890115021375e+06 
4.199999999994e+01 4.890081952229e+06 
4.399999999995e+01 4.890084423725e+06 
4.599999999995e+01 4.890092472694e+06 
4.799999999996e+01 4.890099828400e+06 
4.999999999996e+01 4.890121668902e+06 
5.199999999997e+01 4.890116497450e+06 
5.399999999997e+01 4.890131579381e+06 
5.599999999998e+01 4.890124244692e+06 
5.799999999998e+01 4.890065473113e+06 
5.999999999999e+01 4.890053428783e+06 
6.199999999999e+01 4.890051734728e+06 
6.400000000000e+01 4.890051331432e+06 
 ZONE T="TIME=3.000000001000e+03"
0.000000000000e+00 4.890118257753e+06 
1.999999999998e+00 4.890114612368e+06 
3.999999999993e+00 4.890140785119e+06 
5.999999999987e+00 4.890166681060e+06 
7.999999999981e+00 4.890222211544e+06 
9.999999999976e+00 4.890211473815e+06 
1.199999999997e+01 4.890169822392e+06 
1.399999999996e+01 4.890205747162e+06 
1.599999999996e+01 4.890207353875e+06 
1.799999999995e+01 4.890196173927e+06 
1.999999999995e+01 4.890196303409e+06 
2.199999999994e+01 4.890140286050e+06 
2.399999999994e+01 4.890089406032e+06 
2.599999999993e+01 4.890113549528e+06 
2.799999999992e+01 4.890117545283e+06 
2.999999999992e+01 4.890100133711e+06 
3.199999999991e+01 4.890110204747e+06 
3.399999999992e+01 4.890152773729e+06 
3.599999999992e+01 4.890159615595e+06 
3.799999999993e+01 4.890135606557e+06 
3.999999999993e+01 4.890114496937e+06 
4.199999999994e+01 4.890081216021e+06 
4.399999999995e+01 4.890083839213e+06 
4.599999999995e+01 4.890091629018e+06 
4.799999999996e+01 4.890098943094e+06 
4.999999999996e+01 4.890121409347e+06 
5.199999999997e+01 4.890116226734e+06 
5.399999999997e+01 4.890132065884e+06 
5.599999999998e+01 4.890124653100e+06 
5.799999999998e+01 4.890064845926e+06 
5.999999999999e+01 4.890052661546e+06 
6.199999999999e+01 4.890051000581e+06 
6.400000000000e+01 4.890050612829e+06 
 ZONE T="TIME=3.300000001000e+03"
0.000000000000e+00 4.890117433219e+06 
1.999999999998e+00 4.890113764459e+06 
3.999999999993e+00 4.890140674970e+06 
5.999999999987e+00 4.890167579941e+06 
7.999999999981e+00 4.890225880591e+06 
9.999999999976e+00 4.890214494371e+06 
1.199999999997e+01 4.890170626857e+06 
1.399999999996e+01 4.890207585079e+06 
1.599999999996e+01 4.890209205667e+06 
1.799999999995e+01 4.890197534517e+06 
1.999999999995e+01 4.890197675861e+06 
2.199999999994e+01 4.890140608401e+06 
2.399999999994e+01 4.890088486261e+06 
2.599999999993e+01 4.890111919359e+06 
2.799999999992e+01 4.890115975671e+06 
2.999999999992e+01 4.890098284789e+06 
3.199999999991e+01 4.890108717007e+06 
3.399999999992e+01 4.890152452357e+06 
3.599999999992e+01 4.890159763355e+06 
3.799999999993e+01 4.890135411659e+06 
3.999999999993e+01 4.890113931046e+06 
4.199999999994e+01 4.890080459691e+06 
4.399999999995e+01 4.890083243723e+06 
4.599999999995e+01 4.890090755890e+06 
4.799999999996e+01 4.890098011477e+06 
4.999999999996e+01 4.890121100581e+06 
5.199999999997e+01 4.890115916496e+06 
5.399999999997e+01 4.890132539584e+06 
5.599999999998e+01 4.890125051557e+06 
5.799999999998e+01 4.890064219721e+06 
5.999999999999e+01 4.890051896847e+06 
6.199999999999e+01 4.890050273459e+06 
6.400000000000e+01 4.890049901470e+06 
 ZONE T="TIME=3.600000001000e+03"
0.000000000000e+00 4.890116644452e+06 
1.999999999998e+00 4.890112960436e+06 
3.999999999993e+00 4.890140579760e+06 
5.999999999987e+00 4.890168464140e+06 
7.999999999981e+00 4.890229494408e+06 
9.999999999976e+00 4.890217463953e+06 
1.199999999997e+01 4.890171407106e+06 
1.399999999996e+01 4.890209331440e+06 
1.599999999996e+01 4.890210957042e+06 
1.799999999995e+01 4.890198802276e+06 
1.999999999995e+01 4.890198948078e+06 
2.199999999994e+01 4.890140916949e+06 
2.399999999994e+01 4.890087619588e+06 
2.599999999993e+01 4.890110332660e+06 
2.799999999992e+01 4.890114429461e+06 
2.999999999992e+01 4.890096487492e+06 
3.199999999991e+01 4.890107267009e+06 
3.399999999992e+01 4.890152084631e+06 
3.599999999992e+01 4.890159858363e+06 
3.799999999993e+01 4.890135218404e+06 
3.999999999993e+01 4.890113393328e+06 
4.199999999994e+01 4.890079754034e+06 
4.399999999995e+01 4.890082694131e+06 
4.599999999995e+01 4.890089930441e+06 
4.799999999996e+01 4.890097115065e+06 
4.999999999996e+01 4.890120783967e+06 
5.199999999997e+01 4.890115606592e+06 
5.399999999997e+01 4.890132987172e+06 
5.599999999998e+01 4.890125430507e+06 
5.799999999998e+01 4.890063643831e+06 
5.999999999999e+01 4.890051191319e+06 
6.199999999999e+01 4.890049607416e+06 
6.400000000000e+01 4.890049250737e+06 
 ZONE T="TIME=3.900000001000e+03"
0.000000000000e+00 4.890115772091e+06 
1.999999999998e+00 4.890112080350e+06 
3.999999999993e+00 4.890140486514e+06 
5.999999999987e+00 4.890169467544e+06 
7.999999999981e+00 4.890233598653e+06 
9.999999999976e+00 4.890220830857e+06 
1.199999999997e+01 4.890172278772e+06 
1.399999999996e+01 4.890211239508e+06 
1.599999999996e+01 4.890212860312e+06 
1.799999999995e+01 4.890200156290e+06 
1.999999999995e+01 4.890200298182e+06 
2.199999999994e+01 4.890141254686e+06 
2.399999999994e+01 4.890086681102e+06 
2.599999999993e+01 4.890108556933e+06 
2.799999999992e+01 4.890112676993e+06 
2.999999999992e+01 4.890094475981e+06 
3.199999999991e+01 4.890105640158e+06 
3.399999999992e+01 4.890151610874e+06 
3.599999999992e+01 4.890159910954e+06 
3.799999999993e+01 4.890135000231e+06 
3.999999999993e+01 4.890112806786e+06 
4.199999999994e+01 4.890078996812e+06 
4.399999999995e+01 4.890082111253e+06 
4.599999999995e+01 4.890089032739e+06 
4.799999999996e+01 4.890096122433e+06 
4.999999999996e+01 4.890120411694e+06 
5.199999999997e+01 4.890115251166e+06 
5.399999999997e+01 4.890133475055e+06 
5.599999999998e+01 4.890125846192e+06 
5.799999999998e+01 4.890063033709e+06 
5.999999999999e+01 4.890050441319e+06 
6.199999999999e+01 4.890048905395e+06 
6.400000000000e+01 4.890048566203e+06 
 ZONE T="TIME=4.200000001000e+03"
0.000000000000e+00 4.890120557157e+06 
1.999999999998e+00 4.890117015712e+06 
3.999999999993e+00 4.890141157768e+06 
5.999999999987e+00 4.890164307872e+06 
7.999999999981e+00 4.890212495819e+06 
9.999999999976e+00 4.890203398642e+06 
1.199999999997e+01 4.890167448754e+06 
1.399999999996e+01 4.890200274503e+06 
1.599999999996e+01 4.890201757085e+06 
1.799999999995e+01 4.890191850433e+06 
1.999999999995e+01 4.890191965332e+06 
2.199999999994e+01 4.890140584197e+06 
2.399999999994e+01 4.890093639064e+06 
2.599999999993e+01 4.890118030921e+06 
2.799999999992e+01 4.890121558158e+06 
2.999999999992e+01 4.890105015625e+06 
3.199999999991e+01 4.890114077779e+06 
3.399999999992e+01 4.890153202789e+06 
3.599999999992e+01 4.890158818014e+06 
3.799999999993e+01 4.890135994285e+06 
3.999999999993e+01 4.890115999157e+06 
4.199999999994e+01 4.890083367948e+06 
4.399999999995e+01 4.890085564590e+06 
4.599999999995e+01 4.890094061222e+06 
4.799999999996e+01 4.890101452020e+06 
4.999999999996e+01 4.890122093388e+06 
5.199999999997e+01 4.890116962267e+06 
5.399999999997e+01 4.890130661862e+06 
5.599999999998e+01 4.890123481916e+06 
5.799999999998e+01 4.890066707125e+06 
5.999999999999e+01 4.890054930512e+06 
6.199999999999e+01 4.890053181384e+06 
6.400000000000e+01 4.890052747746e+06 
 ZONE T="TIME=4.500000001000e+03"
0.000000000000e+00 4.890117930490e+06 
1.999999999998e+00 4.890114274978e+06 
3.999999999993e+00 4.890140740150e+06 
5.999999999987e+00 4.890167034656e+06 
7.999999999981e+00 4.890223654097e+06 
9.999999999976e+00 4.890212662128e+06 
1.199999999997e+01 4.890170140178e+06 
1.399999999996e+01 4.890206477667e+06 
1.599999999996e+01 4.890208090886e+06 
1.799999999995e+01 4.890196717778e+06 
1.999999999995e+01 4.890196852789e+06 
2.199999999994e+01 4.890140413779e+06 
2.399999999994e+01 4.890089039537e+06 
2.599999999993e+01 4.890112906489e+06 
2.799999999992e+01 4.890116928405e+06 
2.999999999992e+01 4.890099403935e+06 
3.199999999991e+01 4.890109618029e+06 
3.399999999992e+01 4.890152653918e+06 
3.599999999992e+01 4.890159680146e+06 
3.799999999993e+01 4.890135530240e+06 
3.999999999993e+01 4.890114272073e+06 
4.199999999994e+01 4.890080913684e+06 
4.399999999995e+01 4.890083600395e+06 
4.599999999995e+01 4.890091281415e+06 
4.799999999996e+01 4.890098574221e+06 
4.999999999996e+01 4.890121289593e+06 
5.199999999997e+01 4.890116105373e+06 
5.399999999997e+01 4.890132254556e+06 
5.599999999998e+01 4.890124811477e+06 
5.799999999998e+01 4.890064594428e+06 
5.999999999999e+01 4.890052354728e+06 
6.199999999999e+01 4.890050708249e+06 
6.400000000000e+01 4.890050326743e+06 
 ZONE T="TIME=4.800000001000e+03"
0.000000000000e+00 4.890115051351e+06 
1.999999999998e+00 4.890111361261e+06 
3.999999999993e+00 4.890140419528e+06 
5.999999999987e+00 4.890170315287e+06 
7.999999999981e+00 4.890237065923e+06 
9.999999999976e+00 4.890223671345e+06 
1.199999999997e+01 4.890173003663e+06 
1.399999999996e+01 4.890212790723e+06 
1.599999999996e+01 4.890214398770e+06 
1.799999999995e+01 4.890201230671e+06 
1.999999999995e+01 4.890201361731e+06 
2.199999999994e+01 4.890141528822e+06 
2.399999999994e+01 4.890085925967e+06 
2.599999999993e+01 4.890107082286e+06 
2.799999999992e+01 4.890111203551e+06 
2.999999999992e+01 4.890092803254e+06 
3.199999999991e+01 4.890104284747e+06 
3.399999999992e+01 4.890151170233e+06 
3.599999999992e+01 4.890159915889e+06 
3.799999999993e+01 4.890134821128e+06 
3.999999999993e+01 4.890112333443e+06 
4.199999999994e+01 4.890078392802e+06 
4.399999999995e+01 4.890081651954e+06 
4.599999999995e+01 4.890088306567e+06 
4.799999999996e+01 4.890095303381e+06 
4.999999999996e+01 4.890120083412e+06 
5.199999999997e+01 4.890114942896e+06 
5.399999999997e+01 4.890133864289e+06 
5.599999999998e+01 4.890126178714e+06 
5.799999999998e+01 4.890062549995e+06 
5.999999999999e+01 4.890049847472e+06 
6.199999999999e+01 4.890048356661e+06 
6.400000000000e+01 4.890048033106e+06 
 ZONE T="TIME=5.100000001000e+03"
0.000000000000e+00 4.890111709347e+06 
1.999999999998e+00 4.890108136258e+06 
3.999999999993e+00 4.890140171235e+06 
5.999999999987e+00 4.890174273165e+06 
7.999999999981e+00 4.890253383370e+06 
9.999999999976e+00 4.890236994102e+06 
1.199999999997e+01 4.890176217987e+06 
1.399999999996e+01 4.890219312287e+06 
1.599999999996e+01 4.890220748284e+06 
1.799999999995e+01 4.890205382683e+06 
1.999999999995e+01 4.890205364251e+06 
2.199999999994e+01 4.890142593538e+06 
2.399999999994e+01 4.890082762418e+06 
2.599999999993e+01 4.890100428679e+06 
2.799999999992e+01 4.890104329934e+06 
2.999999999992e+01 4.890085179322e+06 
3.199999999991e+01 4.890098054405e+06 
3.399999999992e+01 4.890148558083e+06 
3.599999999992e+01 4.890159407855e+06 
3.799999999993e+01 4.890133955079e+06 
3.999999999993e+01 4.890110261098e+06 
4.199999999994e+01 4.890075854356e+06 
4.399999999995e+01 4.890079762610e+06 
4.599999999995e+01 4.890085190465e+06 
4.799999999996e+01 4.890091739595e+06 
4.999999999996e+01 4.890118676783e+06 
5.199999999997e+01 4.890113747030e+06 
5.399999999997e+01 4.890135783189e+06 
5.599999999998e+01 4.890127881343e+06 
5.799999999998e+01 4.890060673096e+06 
5.999999999999e+01 4.890047530732e+06 
6.199999999999e+01 4.890046365305e+06 
6.400000000000e+01 4.890046270769e+06 
 ZONE T="TIME=5.400000001000e+03"
0.000000000000e+00 4.890107501921e+06 
1.999999999998e+00 4.890104351676e+06 
3.999999999993e+00 4.890140019895e+06 
5.999999999987e+00 4.890179180061e+06 
7.999999999981e+00 4.890273493709e+06 
9.999999999976e+00 4.890253376828e+06 
1.199999999997e+01 4.890179790578e+06 
1.399999999996e+01 4.890225694312e+06 
1.599999999996e+01 4.890226654537e+06 
1.799999999995e+01 4.890208545252e+06 
1.999999999995e+01 4.890208115264e+06 
2.199999999994e+01 4.890143375815e+06 
2.399999999994e+01 4.890079795931e+06 
2.599999999993e+01 4.890093204962e+06 
2.799999999992e+01 4.890096366044e+06 
2.999999999992e+01 4.890076555668e+06 
3.199999999991e+01 4.890090933601e+06 
3.399999999992e+01 4.890144583052e+06 
3.599999999992e+01 4.890158055887e+06 
3.799999999993e+01 4.890133131216e+06 
3.999999999993e+01 4.890108224941e+06 
4.199999999994e+01 4.890073416564e+06 
4.399999999995e+01 4.890078054895e+06 
4.599999999995e+01 4.890082051350e+06 
4.799999999996e+01 4.890088017095e+06 
4.999999999996e+01 4.890117101319e+06 
5.199999999997e+01 4.890112582108e+06 
5.399999999997e+01 4.890138191414e+06 
5.599999999998e+01 4.890130134012e+06 
5.799999999998e+01 4.890058776513e+06 
5.999999999999e+01 4.890045116395e+06 
6.199999999999e+01 4.890044564575e+06 
6.400000000000e+01 4.890045004333e+06 
 ZONE T="TIME=5.700000001000e+03"
0.000000000000e+00 4.890101543833e+06 
1.999999999998e+00 4.890099405240e+06 
3.999999999993e+00 4.890139793640e+06 
5.999999999987e+00 4.890185219087e+06 
7.999999999981e+00 4.890298229956e+06 
9.999999999976e+00 4.890273507909e+06 
1.199999999997e+01 4.890183429281e+06 
1.399999999996e+01 4.890230927842e+06 
1.599999999996e+01 4.890230804404e+06 
1.799999999995e+01 4.890209040156e+06 
1.999999999995e+01 4.890207700769e+06 
2.199999999994e+01 4.890143486418e+06 
2.399999999994e+01 4.890079623739e+06 
2.599999999993e+01 4.890088588169e+06 
2.799999999992e+01 4.890088194201e+06 
2.999999999992e+01 4.890067684272e+06 
3.199999999991e+01 4.890083498556e+06 
3.399999999992e+01 4.890139053416e+06 
3.599999999992e+01 4.890155321430e+06 
3.799999999993e+01 4.890132303022e+06 
3.999999999993e+01 4.890106156270e+06 
4.199999999994e+01 4.890071085479e+06 
4.399999999995e+01 4.890076582573e+06 
4.599999999995e+01 4.890078956784e+06 
4.799999999996e+01 4.890084365587e+06 
4.999999999996e+01 4.890115571012e+06 
5.199999999997e+01 4.890111495198e+06 
5.399999999997e+01 4.890140639488e+06 
5.599999999998e+01 4.890132462821e+06 
5.799999999998e+01 4.890056785565e+06 
5.999999999999e+01 4.890042519114e+06 
6.199999999999e+01 4.890042648219e+06 
6.400000000000e+01 4.890043714121e+06 
 ZONE T="TIME=6.000000001000e+03"
0.000000000000e+00 4.890091933931e+06 
1.999999999998e+00 4.890092081238e+06 
3.999999999993e+00 4.890139529088e+06 
5.999999999987e+00 4.890193143357e+06 
7.999999999981e+00 4.890328426537e+06 
9.999999999976e+00 4.890299505724e+06 
1.199999999997e+01 4.890187567891e+06 
1.399999999996e+01 4.890232184026e+06 
1.599999999996e+01 4.890229629027e+06 
1.799999999995e+01 4.890203085768e+06 
1.999999999995e+01 4.890200271139e+06 
2.199999999994e+01 4.890141216462e+06 
2.399999999994e+01 4.890083083388e+06 
2.599999999993e+01 4.890089849400e+06 
2.799999999992e+01 4.890082231194e+06 
2.999999999992e+01 4.890059947652e+06 
3.199999999991e+01 4.890078377400e+06 
3.399999999992e+01 4.890137136157e+06 
3.599999999992e+01 4.890157613200e+06 
3.799999999993e+01 4.890134330794e+06 
3.999999999993e+01 4.890105194778e+06 
4.199999999994e+01 4.890069134871e+06 
4.399999999995e+01 4.890074566451e+06 
4.599999999995e+01 4.890075699497e+06 
4.799999999996e+01 4.890080423587e+06 
4.999999999996e+01 4.890111740798e+06 
5.199999999997e+01 4.890108407863e+06 
5.399999999997e+01 4.890141001553e+06 
5.599999999998e+01 4.890133437217e+06 
5.799999999998e+01 4.890053853703e+06 
5.999999999999e+01 4.890038473212e+06 
6.199999999999e+01 4.890039795815e+06 
6.400000000000e+01 4.890041605679e+06 
 ZONE T="TIME=6.300000001000e+03"