 TITLE = "Profiles along polylines"  			
 VARIABLES = "DIST", "PRESSURE_INPUT", "PRESSURE_OUTPUT"			
 ZONE T = "TIME=1.000000000000e-00"		
0 0 0			
1.999999999994 0 0			
3.999999999989 0 0			
5.999999999983 0 0			
7.999999999978 0 0			
9.999999999972 0 0			
11.99999999997 0 0			
13.99999999996 0 0			
15.99999999996 0 0			
17.99999999995 0 0			
19.99999999994 0 0			
21.99999999994 0 0			
23.99999999993 0 0			
25.99999999993 0 0			
27.99999999992 0 0			
29.99999999992 0 0			
31.99999999991 0 0			
33.99999999992 0 0			
35.99999999992 0 0			
37.99999999993 0 0			
39.99999999993 0 0			
41.99999999994 0 0			
43.99999999994 0 0			
45.99999999995 0 0			
47.99999999996 0 0			
49.99999999996 0 0			
51.99999999997 0 0			
53.99999999997 0 0			
55.99999999998 0 0			
57.99999999998 0 0			
59.99999999999 0 0			
61.99999999999 0 0			
64 0 0			
 TITLE = "Profiles along polylines"  			
 VARIABLES = "DIST", "PRESSURE_INPUT", "PRESSURE_OUTPUT"			
 ZONE T = "TIME=1.000000000000e-06"		
0 295099.5443569 386.654227633			
1.999999999994 295196.177346 384.6241416126			
3.999999999989 295374.3196017 560.367742985			
5.999999999983 295474.52471 774.1757600378			
7.999999999978 295402.630709 1356.128722573			
9.999999999972 295220.759051 1245.866106391			
11.99999999997 294929.2697792 808.8673702044			
13.99999999996 294482.0085607 1025.21408691			
15.99999999996 293915.2553487 1020.904966274			
17.99999999995 293390.0658672 909.1200062614			
19.99999999994 292981.7139052 908.7851521086			
21.99999999994 292966.4205266 637.6019172191			
23.99999999993 293227.3079732 359.3684371682			
25.99999999993 293252.3393227 347.8108095845			
27.99999999992 293048.3926974 306.4468227685			
29.99999999992 292899.7112086 235.3822314749			
31.99999999991 292637.7816408 306.6160978588			
33.99999999992 292316.5500454 542.4725498871			
35.99999999992 291910.3765081 624.3216844611			
37.99999999993 291390.8277638 526.1687538549			
39.99999999993 290742.5167108 410.478836541			
41.99999999994 289348.6785455 270.3048407877			
43.99999999994 289086.1523101 287.091719447			
45.99999999995 289976.0219607 291.4222562988			
47.99999999996 290708.9793219 312.2068061237			
49.99999999996 291116.3484883 436.0842026899			
51.99999999997 291736.1559104 425.5694823833			
53.99999999997 292256.7394354 549.6019961011			
55.99999999998 292721.7352601 522.4399029499			
57.99999999998 293063.0689542 217.9763803138			
59.99999999999 293347.3776685 162.1106980897			
61.99999999999 293542.5467124 173.0517653739			
64 293623.8574494 191.0100794616			
 ZONE T="TIME=3.000000010000e+02"		
0 295099.544357 386.654227633			
1.999999999994 295196.1773461 384.6241416127			
3.999999999989 295374.3196018 560.3677429851			
5.999999999983 295474.52471 774.175760038			
7.999999999978 295402.630709 1356.128722574			
9.999999999972 295220.759051 1245.866106392			
11.99999999997 294929.2697792 808.8673702046			
13.99999999996 294482.0085607 1025.21408691			
15.99999999996 293915.2553488 1020.904966274			
17.99999999995 293390.0658672 909.1200062616			
19.99999999994 292981.7139052 908.7851521088			
21.99999999994 292966.4205266 637.6019172193			
23.99999999993 293227.3079733 359.3684371683			
25.99999999993 293252.3393227 347.8108095846			
27.99999999992 293048.3926974 306.4468227686			
29.99999999992 292899.7112086 235.382231475			
31.99999999991 292637.7816409 306.6160978589			
33.99999999992 292316.5500454 542.4725498872			
35.99999999992 291910.3765081 624.3216844612			
37.99999999993 291390.8277638 526.168753855			
39.99999999993 290742.5167109 410.4788365411			
41.99999999994 289348.6785456 270.3048407877			
43.99999999994 289086.1523101 287.0917194471			
45.99999999995 289976.0219607 291.4222562989			
47.99999999996 290708.9793219 312.2068061237			
49.99999999996 291116.3484884 436.08420269			
51.99999999997 291736.1559104 425.5694823834			
53.99999999997 292256.7394354 549.6019961012			
55.99999999998 292721.7352601 522.43990295			
57.99999999998 293063.0689543 217.9763803138			
59.99999999999 293347.3776686 162.1106980897			
61.99999999999 293542.5467125 173.0517653739			
64 293623.8574494 191.0100794617			
 ZONE T= "TIME=6.000000010000e+02"		
0 295099.544357 386.6542276331			
1.999999999994 295196.1773461 384.6241416128			
3.999999999989 295374.3196018 560.3677429852			
5.999999999983 295474.52471 774.1757600381			
7.999999999978 295402.6307091 1356.128722574			
9.999999999972 295220.7590511 1245.866106392			
11.99999999997 294929.2697792 808.8673702047			
13.99999999996 294482.0085607 1025.214086911			
15.99999999996 293915.2553488 1020.904966274			
17.99999999995 293390.0658673 909.1200062618			
19.99999999994 292981.7139052 908.785152109			
21.99999999994 292966.4205266 637.6019172194			
23.99999999993 293227.3079733 359.3684371683			
25.99999999993 293252.3393227 347.8108095846			
27.99999999992 293048.3926974 306.4468227686			
29.99999999992 292899.7112087 235.382231475			
31.99999999991 292637.7816409 306.6160978589			
33.99999999992 292316.5500454 542.4725498873			
35.99999999992 291910.3765081 624.3216844613			
37.99999999993 291390.8277638 526.1687538551			
39.99999999993 290742.5167109 410.4788365411			
41.99999999994 289348.6785456 270.3048407878			
43.99999999994 289086.1523101 287.0917194471			
45.99999999995 289976.0219608 291.4222562989			
47.99999999996 290708.9793219 312.2068061238			
49.99999999996 291116.3484884 436.0842026901			
51.99999999997 291736.1559104 425.5694823835			
53.99999999997 292256.7394354 549.6019961013			
55.99999999998 292721.7352602 522.4399029501			
57.99999999998 293063.0689543 217.9763803139			
59.99999999999 293347.3776686 162.1106980898			
61.99999999999 293542.5467125 173.051765374			
64 293623.8574494 191.0100794617			
 ZONE T= "TIME=9.000000010000e+02"		
0 295099.544357 386.6542276331			
1.999999999994 295196.1773461 384.6241416127			
3.999999999989 295374.3196018 560.3677429851			
5.999999999983 295474.52471 774.175760038			
7.999999999978 295402.630709 1356.128722574			
9.999999999972 295220.759051 1245.866106392			
11.99999999997 294929.2697792 808.8673702047			
13.99999999996 294482.0085607 1025.214086911			
15.99999999996 293915.2553488 1020.904966274			
17.99999999995 293390.0658672 909.1200062617			
19.99999999994 292981.7139052 908.7851521089			
21.99999999994 292966.4205266 637.6019172193			
23.99999999993 293227.3079733 359.3684371683			
25.99999999993 293252.3393227 347.8108095846			
27.99999999992 293048.3926974 306.4468227686			
29.99999999992 292899.7112086 235.382231475			
31.99999999991 292637.7816409 306.6160978589			
33.99999999992 292316.5500454 542.4725498873			
35.99999999992 291910.3765081 624.3216844613			
37.99999999993 291390.8277638 526.1687538551			
39.99999999993 290742.5167109 410.4788365411			
41.99999999994 289348.6785456 270.3048407878			
43.99999999994 289086.1523101 287.0917194471			
45.99999999995 289976.0219607 291.4222562989			
47.99999999996 290708.9793219 312.2068061237			
49.99999999996 291116.3484884 436.0842026901			
51.99999999997 291736.1559104 425.5694823835			
53.99999999997 292256.7394354 549.6019961012			
55.99999999998 292721.7352601 522.4399029501			
57.99999999998 293063.0689543 217.9763803138			
59.99999999999 293347.3776686 162.1106980897			
61.99999999999 293542.5467125 173.0517653739			
64 293623.8574494 191.0100794617			
 ZONE T= "TIME=1.200000001000e+03"		
0 295099.5443571 386.6542276332			
1.999999999994 295196.1773462 384.6241416129			
3.999999999989 295374.3196019 560.3677429854			
5.999999999983 295474.5247101 774.1757600384			
7.999999999978 295402.6307092 1356.128722574			
9.999999999972 295220.7590512 1245.866106392			
11.99999999997 294929.2697793 808.867370205			
13.99999999996 294482.0085608 1025.214086911			
15.99999999996 293915.2553489 1020.904966274			
17.99999999995 293390.0658674 909.1200062621			
19.99999999994 292981.7139053 908.7851521093			
21.99999999994 292966.4205267 637.6019172196			
23.99999999993 293227.3079734 359.3684371685			
25.99999999993 293252.3393229 347.8108095848			
27.99999999992 293048.3926975 306.4468227688			
29.99999999992 292899.7112088 235.3822314751			
31.99999999991 292637.781641 306.616097859			
33.99999999992 292316.5500456 542.4725498875			
35.99999999992 291910.3765082 624.3216844616			
37.99999999993 291390.8277639 526.1687538553			
39.99999999993 290742.516711 410.4788365413			
41.99999999994 289348.6785457 270.3048407879			
43.99999999994 289086.1523102 287.0917194472			
45.99999999995 289976.0219609 291.4222562991			
47.99999999996 290708.979322 312.2068061239			
49.99999999996 291116.3484885 436.0842026902			
51.99999999997 291736.1559106 425.5694823836			
53.99999999997 292256.7394355 549.6019961015			
55.99999999998 292721.7352603 522.4399029503			
57.99999999998 293063.0689544 217.9763803139			
59.99999999999 293347.3776687 162.1106980898			
61.99999999999 293542.5467126 173.051765374			
64 293623.8574496 191.0100794618			
 ZONE T= "TIME=1.500000001000e+03"		
0 295099.544357 386.654227633			
1.999999999994 295196.1773461 384.6241416127			
3.999999999989 295374.3196018 560.3677429851			
5.999999999983 295474.52471 774.1757600379			
7.999999999978 295402.630709 1356.128722574			
9.999999999972 295220.759051 1245.866106392			
11.99999999997 294929.2697792 808.8673702046			
13.99999999996 294482.0085607 1025.21408691			
15.99999999996 293915.2553488 1020.904966274			
17.99999999995 293390.0658672 909.1200062616			
19.99999999994 292981.7139052 908.7851521088			
21.99999999994 292966.4205266 637.6019172192			
23.99999999993 293227.3079733 359.3684371683			
25.99999999993 293252.3393227 347.8108095846			
27.99999999992 293048.3926974 306.4468227686			
29.99999999992 292899.7112086 235.382231475			
31.99999999991 292637.7816409 306.6160978589			
33.99999999992 292316.5500454 542.4725498872			
35.99999999992 291910.3765081 624.3216844612			
37.99999999993 291390.8277638 526.168753855			
39.99999999993 290742.5167109 410.4788365411			
41.99999999994 289348.6785456 270.3048407877			
43.99999999994 289086.1523101 287.0917194471			
45.99999999995 289976.0219607 291.4222562989			
47.99999999996 290708.9793219 312.2068061237			
49.99999999996 291116.3484884 436.08420269			
51.99999999997 291736.1559104 425.5694823834			
53.99999999997 292256.7394354 549.6019961012			
55.99999999998 292721.7352601 522.43990295			
57.99999999998 293063.0689543 217.9763803138			
59.99999999999 293347.3776686 162.1106980897			
61.99999999999 293542.5467125 173.0517653739			
64 293623.8574494 191.0100794617			
 ZONE T= "TIME=1.800000001000e+03"		
0 295099.544357 386.6542276331			
1.999999999994 295196.1773461 384.6241416127			
3.999999999989 295374.3196018 560.3677429851			
5.999999999983 295474.52471 774.175760038			
7.999999999978 295402.6307091 1356.128722574			
9.999999999972 295220.7590511 1245.866106392			
11.99999999997 294929.2697792 808.8673702046			
13.99999999996 294482.0085607 1025.21408691			
15.99999999996 293915.2553488 1020.904966274			
17.99999999995 293390.0658673 909.1200062617			
19.99999999994 292981.7139052 908.7851521089			
21.99999999994 292966.4205266 637.6019172193			
23.99999999993 293227.3079733 359.3684371683			
25.99999999993 293252.3393227 347.8108095846			
27.99999999992 293048.3926974 306.4468227686			
29.99999999992 292899.7112087 235.382231475			
31.99999999991 292637.7816409 306.6160978589			
33.99999999992 292316.5500454 542.4725498873			
35.99999999992 291910.3765081 624.3216844613			
37.99999999993 291390.8277638 526.1687538551			
39.99999999993 290742.5167109 410.4788365411			
41.99999999994 289348.6785456 270.3048407878			
43.99999999994 289086.1523101 287.0917194471			
45.99999999995 289976.0219608 291.4222562989			
47.99999999996 290708.9793219 312.2068061237			
49.99999999996 291116.3484884 436.08420269			
51.99999999997 291736.1559104 425.5694823835			
53.99999999997 292256.7394354 549.6019961012			
55.99999999998 292721.7352602 522.4399029501			
57.99999999998 293063.0689543 217.9763803138			
59.99999999999 293347.3776686 162.1106980897			
61.99999999999 293542.5467125 173.0517653739			
64 293623.8574494 191.0100794617			
 ZONE T= "TIME=2.100000001000e+03"		
0 295099.544357 386.6542276331			
1.999999999994 295196.1773461 384.6241416128			
3.999999999989 295374.3196018 560.3677429852			
5.999999999983 295474.52471 774.1757600381			
7.999999999978 295402.6307091 1356.128722574			
9.999999999972 295220.7590511 1245.866106392			
11.99999999997 294929.2697793 808.8673702047			
13.99999999996 294482.0085607 1025.214086911			
15.99999999996 293915.2553488 1020.904966274			
17.99999999995 293390.0658673 909.1200062618			
19.99999999994 292981.7139053 908.785152109			
21.99999999994 292966.4205266 637.6019172194			
23.99999999993 293227.3079733 359.3684371683			
25.99999999993 293252.3393228 347.8108095846			
27.99999999992 293048.3926975 306.4468227687			
29.99999999992 292899.7112087 235.382231475			
31.99999999991 292637.7816409 306.6160978589			
33.99999999992 292316.5500455 542.4725498873			
35.99999999992 291910.3765081 624.3216844613			
37.99999999993 291390.8277639 526.1687538551			
39.99999999993 290742.5167109 410.4788365411			
41.99999999994 289348.6785456 270.3048407878			
43.99999999994 289086.1523102 287.0917194471			
45.99999999995 289976.0219608 291.422256299			
47.99999999996 290708.9793219 312.2068061238			
49.99999999996 291116.3484884 436.0842026901			
51.99999999997 291736.1559105 425.5694823835			
53.99999999997 292256.7394354 549.6019961013			
55.99999999998 292721.7352602 522.4399029501			
57.99999999998 293063.0689543 217.9763803139			
59.99999999999 293347.3776686 162.1106980898			
61.99999999999 293542.5467125 173.051765374			
64 293623.8574495 191.0100794617			
 ZONE T= "TIME=2.400000001000e+03"		
0 322183.1323145 374.3607691294			
1.999999999994 322278.4898566 375.0308040334			
3.999999999989 322448.6464626 556.8455522468			
5.999999999983 322538.9353369 777.3363958527			
7.999999999978 322462.5547615 1375.752599396			
9.999999999972 322277.7588438 1263.292498825			
11.99999999997 321985.6695179 808.5699043865			
13.99999999996 321543.5587761 1019.743514944			
15.99999999996 320980.6186988 1012.434048191			
17.99999999995 320451.3338742 895.3771243986			
19.99999999994 320039.8795191 893.2630091978			
21.99999999994 320029.3576225 631.7036758235			
23.99999999993 320299.5527626 365.1043821665			
25.99999999993 320325.1301558 357.2485088277			
27.99999999992 320118.2800763 310.9795366708			
29.99999999992 319965.5199495 238.1048604496			
31.99999999991 319699.3341427 311.6963882547			
33.99999999992 319370.8868626 546.4886402819			
35.99999999992 318959.4038782 631.6253653795			
37.99999999993 318432.9739553 532.3513567137			
39.99999999993 317777.2873949 412.8258163241			
41.99999999994 316361.6698057 269.4504980184			
43.99999999994 316095.1467245 282.2572028637			
45.99999999995 317009.6577577 285.3623701609			
47.99999999996 317752.3514491 306.4452189944			
49.99999999996 318170.8991163 430.1182026283			
51.99999999997 318799.0164852 422.9244335705			
53.99999999997 319327.5785968 554.124280724			
55.99999999998 319798.5901495 528.8523722414			
57.99999999998 320144.4319314 217.3354824797			
59.99999999999 320431.0254637 158.9583887389			
61.99999999999 320626.8167093 172.1943951584			
64 320708.1127539 192.8743755585			
 ZONE T= "TIME=2.700000001000e+03"		
0 348688.3780333 362.3558701285			
1.999999999994 348782.0658446 362.2168690262			
3.999999999989 348943.424088 548.2222695001			
5.999999999983 349023.0108064 779.3839832721			
7.999999999978 348941.4850182 1393.804368043			
9.999999999972 348752.9640342 1279.422049946			
11.99999999997 348459.4220541 806.9343584566			
13.99999999996 348021.7272226 1011.685960873			
15.99999999996 347461.9353883 1000.845625108			
17.99999999995 346927.2747002 878.2727104013			
19.99999999994 346510.9414102 873.8952855967			
21.99999999994 346503.2401835 623.2227374447			
23.99999999993 346777.456605 369.9570161513			
25.99999999993 346803.2295871 365.9103776066			
27.99999999992 346597.9241955 321.5568051062			
29.99999999992 346442.4445154 247.9267875157			
31.99999999991 346173.4725886 318.8806774448			
33.99999999992 345839.3967465 551.2486453091			
35.99999999992 345423.9567003 638.0060333696			
37.99999999993 344892.1468229 535.8738550349			
39.99999999993 344230.6435939 412.5984587928			
41.99999999994 342796.2473609 267.576339693			
43.99999999994 342526.6009743 277.9671109012			
45.99999999995 343464.2468011 280.485914552			
47.99999999996 344216.1381031 303.3374170111			
49.99999999996 344644.8898494 427.0967934837			
51.99999999997 345279.092429 420.9199008984			
53.99999999997 345814.0111687 552.9268664242			
55.99999999998 346289.6317791 530.5745830882			
57.99999999998 346639.9407724 220.3130140617			
59.99999999999 346929.7459443 163.1986192077			
61.99999999999 347126.6851489 179.9562894305			
64 347207.8482678 204.0374849242			
 ZONE T= "TIME=3.000000001000e+03"		
0 380513.6238866 346.5754220831			
1.999999999994 380605.1857849 353.8109074121			
3.999999999989 380756.0916489 548.5016762037			
5.999999999983 380823.1677776 781.8447490483			
7.999999999978 380735.6054996 1411.453434606			
9.999999999972 380542.5725541 1294.833286279			
11.99999999997 380247.1536909 804.1227100608			
13.99999999996 379814.4225512 1001.735434194			
15.99999999996 379258.4427932 987.067884357			
17.99999999995 378717.8399328 858.424873974			
19.99999999994 378296.0960598 851.5142242772			
21.99999999994 378292.063883 613.4753725959			
23.99999999993 378571.764637 375.5018850471			
25.99999999993 378598.8002407 375.2953608474			
27.99999999992 378396.3148755 333.2768253357			
29.99999999992 378238.9167259 259.3487268849			
31.99999999991 377968.0978538 327.0980205719			
33.99999999992 377629.1291684 556.4766780278			
35.99999999992 377210.5547583 645.1192593454			
37.99999999993 376674.1848513 539.2395891964			
39.99999999993 376007.8821051 411.2952489274			
41.99999999994 374556.3148018 264.5347934761			
43.99999999994 374283.4643473 271.7846694231			
45.99999999995 375242.5149788 273.6972760587			
47.99999999996 376000.272379 299.2864635455			
49.99999999996 376436.9900406 423.3567672849			
51.99999999997 377073.2943819 418.6150549514			
53.99999999997 377611.2007124 551.748355474			
55.99999999998 378087.6547638 532.7647922838			
57.99999999998 378438.6023355 223.8187482923			
59.99999999999 378728.5898338 167.9822966572			
61.99999999999 378926.2188056 188.6914456677			
64 379008.068679 216.8197578394			
 ZONE T= "TIME=3.300000001000e+03"		
0 415669.9051922 316.1306799236			
1.999999999994 415759.2481189 336.9449171512			
3.999999999989 415899.2018042 549.2995998802			
5.999999999983 415953.3534727 787.1483938966			
7.999999999978 415859.8971069 1434.183531978			
9.999999999972 415662.5359584 1314.833978584			
11.99999999997 415365.7090932 802.9701017432			
13.99999999996 414939.101305 992.563044694			
15.99999999996 414388.5823879 973.1942978115			
17.99999999995 413843.342668 837.0792134287			
19.99999999994 413417.3661217 826.625687427			
21.99999999994 413416.944994 602.0330848177			
23.99999999993 413700.9596411 380.6492044573			
25.99999999993 413728.2921716 383.7751184127			
27.99999999992 413528.0546925 344.4490893304			
29.99999999992 413367.7001499 271.1200368758			
31.99999999991 413093.9741239 335.1134484634			
33.99999999992 412749.0392036 560.5532581937			
35.99999999992 412325.8964955 651.3760575444			
37.99999999993 411783.6757069 542.0543236903			
39.99999999993 411110.9634131 410.4332380374			
41.99999999994 409639.0119994 263.3179435754			
43.99999999994 409363.2169939 269.6986376648			
45.99999999995 410348.5568033 270.8146513297			
47.99999999996 411117.3444305 296.8626083553			
49.99999999996 411565.574106 420.3448972696			
51.99999999997 412207.9163614 416.4713600601			
53.99999999997 412751.5039388 550.1461510719			
55.99999999998 413231.1433857 534.6618328989			
57.99999999998 413584.8376285 227.1897394915			
59.99999999999 413876.2428705 172.3495432612			
61.99999999999 414073.2915022 196.6454258307			
64 414153.9398267 228.8932861766			
 ZONE T= "TIME=3.600000001000e+03"		
0 449480.2422582 323.3257329496			
1.999999999994 449566.0432034 342.6411798141			
3.999999999989 449692.3056005 551.0809167669			
5.999999999983 449730.5948927 787.5380507481			
7.999999999978 449628.4729024 1447.396432721			
9.999999999972 449423.6486257 1326.147798197			
11.99999999997 449122.0181597 797.5846607786			
13.99999999996 448698.1809697 978.7843574154			
15.99999999996 448149.762706 955.5800140648			
17.99999999995 447595.4434911 814.5488979583			
19.99999999994 447159.5619556 802.6295694311			
21.99999999994 447155.2976914 592.2675898641			
23.99999999993 447433.5936181 387.0096588621			
25.99999999993 447452.016891 392.7408036193			
27.99999999992 447245.6009822 355.744799592			
29.99999999992 447072.8609673 282.8704717548			
31.99999999991 446784.645986 342.5474965189			
33.99999999992 446423.6365851 563.8336541103			
35.99999999992 445984.7891934 657.1429792258			
37.99999999993 445426.2642923 544.1230908402			
39.99999999993 444736.0928654 408.6800304608			
41.99999999994 443230.1412918 261.5552556374			
43.99999999994 442945.840157 266.9138416155			
45.99999999995 443954.7855964 267.1687204352			
47.99999999996 444731.1907468 293.9143036666			
49.99999999996 445187.5456954 416.5219894678			
51.99999999997 445832.981715 413.4358626323			
53.99999999997 446379.6679375 546.9437872011			
55.99999999998 446860.0726092 534.9493241774			
57.99999999998 447214.0342872 230.1857972665			
59.99999999999 447504.8951504 176.7428717672			
61.99999999999 447700.6953336 205.3500384018			
64 447780.4025933 242.3545775607			
 ZONE T= "TIME=3.900000001000e+03"	
0 488350.1135371 332.7729213969			
1.999999999994 488431.5979877 350.4689986666			
3.999999999989 488541.8774812 555.4131615463			
5.999999999983 488561.9119764 790.5152204765			
7.999999999978 488449.833127 1464.218438933			
9.999999999972 488236.3152874 1340.563007025			
11.99999999997 487929.1605585 792.0771180156			
13.99999999996 487508.7392922 963.0824439927			
15.99999999996 486963.7880048 935.3513471202			
17.99999999995 486400.9873954 788.9974957589			
19.99999999994 485955.6992197 775.5561482669			
21.99999999994 485945.9535914 581.5465948032			
23.99999999993 486214.7713892 394.622490414			
25.99999999993 486220.575184 402.6418699937			
27.99999999992 486003.7522847 368.1149443331			
29.99999999992 485816.7896727 295.9474511498			
31.99999999991 485515.2129279 349.2589996383			
33.99999999992 485137.3361792 560.9365583337			
35.99999999992 484682.2126743 657.8234827518			
37.99999999993 484107.8502909 545.6671534753			
39.99999999993 483399.1756056 406.9836752093			
41.99999999994 481856.2589986 260.1037300182			
43.99999999994 481563.3642088 264.5239851056			
45.99999999995 482599.305047 263.6873837521			
47.99999999996 483385.2975803 291.1229024663			
49.99999999996 483851.424692 412.6995781437			
51.99999999997 484501.0861585 410.4143688385			
53.99999999997 485051.7551616 543.5977935726			
55.99999999998 485533.5656242 535.4892734267			
57.99999999998 485888.2412343 233.7329710658			
59.99999999999 486178.6791132 181.7084727403			
61.99999999999 486372.9893869 215.2135910021			
64 486451.5044591 257.8945790967			
 ZONE T= "TIME=4.200000001000e+03"		
0 295099.544357 386.6542276331			
1.999999999994 295196.1773461 384.6241416128			
3.999999999989 295374.3196018 560.3677429852			
5.999999999983 295474.52471 774.1757600381			
7.999999999978 295402.6307091 1356.128722574			
9.999999999972 295220.7590511 1245.866106392			
11.99999999997 294929.2697793 808.8673702048			
13.99999999996 294482.0085607 1025.214086911			
15.99999999996 293915.2553488 1020.904966274			
17.99999999995 293390.0658673 909.1200062618			
19.99999999994 292981.7139053 908.785152109			
21.99999999994 292966.4205266 637.6019172194			
23.99999999993 293227.3079733 359.3684371683			
25.99999999993 293252.3393228 347.8108095846			
27.99999999992 293048.3926975 306.4468227687			
29.99999999992 292899.7112087 235.382231475			
31.99999999991 292637.7816409 306.6160978589			
33.99999999992 292316.5500455 542.4725498873			
35.99999999992 291910.3765081 624.3216844614			
37.99999999993 291390.8277639 526.1687538551			
39.99999999993 290742.5167109 410.4788365411			
41.99999999994 289348.6785456 270.3048407878			
43.99999999994 289086.1523102 287.0917194471			
45.99999999995 289976.0219608 291.422256299			
47.99999999996 290708.9793219 312.2068061238			
49.99999999996 291116.3484884 436.0842026901			
51.99999999997 291736.1559105 425.5694823835			
53.99999999997 292256.7394354 549.6019961013			
55.99999999998 292721.7352602 522.4399029501			
57.99999999998 293063.0689543 217.9763803139			
59.99999999999 293347.3776686 162.1106980898			
61.99999999999 293542.5467125 173.051765374			
64 293623.8574495 191.0100794617			
 ZONE T= "TIME=4.500000001000e+03"		
0 394233.8845306 341.0366734258			
1.999999999994 394324.6105398 351.2847107099			
3.999999999989 394471.2871866 549.9200186446			
5.999999999983 394533.3469223 784.5261137453			
7.999999999978 394443.5052274 1421.38680889			
9.999999999972 394248.8224957 1303.523111123			
11.99999999997 393952.8942471 804.0270554294			
13.99999999996 393522.595512 998.3838476125			
15.99999999996 392968.8331458 981.4073011431			
17.99999999995 392426.5446633 848.5633301843			
19.99999999994 392003.0456349 838.9221672646			
21.99999999994 391999.2251218 606.3081634818			
23.99999999993 392278.4347943 375.7758710172			
25.99999999993 392303.6045245 377.088374274			
27.99999999992 392100.0824892 336.542157002			
29.99999999992 391939.6860412 263.570188664			
31.99999999991 391665.7415542 330.1825100352			
33.99999999992 391322.600249 558.1359990051			
35.99999999992 390900.3501077 647.5604347912			
37.99999999993 390359.8766704 540.3711923178			
39.99999999993 389689.1974192 411.0878382671			
41.99999999994 388226.8902997 264.2634028652			
43.99999999994 387952.0214151 271.4307609174			
45.99999999995 388921.9702888 273.1226788648			
47.99999999996 389684.4995147 298.9336815153			
49.99999999996 390125.8989713 422.9487853773			
51.99999999997 390764.8195708 418.317340377			
53.99999999997 391304.9372969 551.2653946107			
55.99999999998 391782.4812926 533.5987137649			
57.99999999998 392134.275973 224.8841866405			
59.99999999999 392424.5343883 169.1081854472			
61.99999999999 392621.830441 190.5448793619			
64 392703.2417544 219.8217204794			
 ZONE T= "TIME=4.800000001000e+03"		
0 522880.2410786 340.304717995			
1.999999999994 522957.1278211 356.4934922312			
3.999999999989 523052.106371 557.8603168845			
5.999999999983 523054.873329 790.5370809519			
7.999999999978 522932.5741705 1471.51202669			
9.999999999972 522709.6336641 1346.428907985			
11.99999999997 522395.5950302 783.9692867589			
13.99999999996 521975.9213297 945.5915253429			
15.99999999996 521431.7106926 914.5471264175			
17.99999999995 520858.830347 766.419277343			
19.99999999994 520402.268564 753.8008989517			
21.99999999994 520386.8925184 574.8864098008			
23.99999999993 520648.2130817 403.0067423849			
25.99999999993 520643.7311005 412.2007620283			
27.99999999992 520418.7478485 379.7938028013			
29.99999999992 520218.5517214 309.8539971426			
31.99999999991 519906.1312183 360.9830534498			
33.99999999992 519515.7897955 577.739193939			
35.99999999992 519047.0438933 677.8614825701			
37.99999999993 518458.4698384 551.5750340199			
39.99999999993 517736.4601755 398.8943709264			
41.99999999994 516166.5393136 249.5298523299			
43.99999999994 515867.2052754 257.9463934827			
45.99999999995 516924.503669 256.8932163639			
47.99999999996 517717.6357746 286.8502314188			
49.99999999996 518191.3289067 408.6008192201			
51.99999999997 518843.811358 407.6688430115			
53.99999999997 519397.4424023 539.5142171896			
55.99999999998 519880.2708239 535.2132927782			
57.99999999998 520235.3927754 236.0999257955			
59.99999999999 520525.4121669 185.3715461217			
61.99999999999 520718.3640081 223.7023274329			
64 520795.8138284 271.8331750201			
 ZONE T= "TIME=5.100000001000e+03"	
0 683225.3738149 361.2560018945			
1.999999999994 683270.1204152 373.4196313447			
3.999999999989 683295.0656094 561.649444421			
5.999999999983 683238.1693822 790.0478564909			
7.999999999978 683083.0916152 1522.632602382			
9.999999999972 682830.3687313 1391.844545411			
11.99999999997 682498.7938792 761.2683205587			
13.99999999996 682100.3130723 882.6097701696			
15.99999999996 681579.3642929 835.3201759401			
17.99999999995 680977.1617347 669.2311936425			
19.99999999994 680478.6698563 651.9380615549			
21.99999999994 680440.3214944 537.2375921066			
23.99999999993 680665.2233386 435.7009010575			
25.99999999993 680614.8564783 440.3059717887			
27.99999999992 680355.4796421 411.8322882127			
29.99999999992 680095.6749548 356.4625984763			
31.99999999991 679732.8733271 386.3385675606			
33.99999999992 679285.6465316 603.0199824376			
35.99999999992 678753.692599 705.1834403727			
37.99999999993 678100.5414769 530.3139994124			
39.99999999993 677316.8493098 385.9145236365			
41.99999999994 675625.6521006 260.4899523809			
43.99999999994 675298.7375235 251.9692238601			
45.99999999995 676453.2118872 246.35202445			
47.99999999996 677280.4897497 279.4951332995			
49.99999999996 677789.0710593 397.8560576683			
51.99999999997 678455.7498206 402.5294912511			
53.99999999997 679024.1463903 544.6287947068			