 TITLE = "Time curves in points"
 VARIABLES = "TIME "  "PRESSURE1" 
 ZONE T="POINT=POINTL2_MID"
0.000000000000e+00 0.000000000000e+00 
1.000000000000e-06 4.897598644432e+06 
3.000000010000e+02 4.897598644410e+06 
6.000000010000e+02 4.897598644410e+06 
9.000000010000e+02 4.897598644410e+06 
1.200000001000e+03 4.897598644411e+06 
1.500000001000e+03 4.897598644410e+06 
1.800000001000e+03 4.897598644410e+06 
2.100000001000e+03 4.897598644410e+06 
2.400000001000e+03 4.897982118588e+06 
2.700000001000e+03 4.898362946739e+06 
3.000000001000e+03 4.898798727659e+06 
3.300000001000e+03 4.899262774801e+06 
3.600000001000e+03 4.899724089503e+06 
3.900000001000e+03 4.900252707791e+06 
4.200000001000e+03 4.897598644397e+06 
4.500000001000e+03 4.898980640152e+06 
4.800000001000e+03 4.900703341228e+06 
5.100000001000e+03 4.902868432078e+06 
5.400000001000e+03 4.905606702858e+06 
5.700000001000e+03 4.909105707019e+06 
6.000000001000e+03 4.913501453166e+06 
6.300000001000e+03 4.897598644421e+06 
6.600000001000e+03 4.900144075350e+06 
6.900000001000e+03 4.903938189337e+06 
7.200000001000e+03 4.909592168243e+06 
7.500000001000e+03 4.917949696889e+06 
7.800000001000e+03 4.931021270756e+06 
8.100000001000e+03 4.945900379301e+06 
8.400000001000e+03 4.897598644495e+06 
8.700000001000e+03 4.900703351585e+06 
9.000000001000e+03 4.905603715450e+06 
9.300000001000e+03 4.913480080255e+06 
9.600000001000e+03 4.925981524880e+06 
9.900000001000e+03 4.943926478148e+06 
1.020000000100e+04 4.968932932478e+06 
1.050000000100e+04 4.897598644490e+06 
1.080000000100e+04 4.900144075350e+06 
1.110000000100e+04 4.903938189338e+06 
1.140000000100e+04 4.909592168243e+06 
1.170000000100e+04 4.917949696889e+06 
1.200000000100e+04 4.931021270756e+06 
1.230000000100e+04 4.945900379303e+06 
1.260000000100e+04 4.897598644495e+06 
1.290000000100e+04 4.898980640153e+06 
1.320000000100e+04 4.900703341228e+06 
1.350000000100e+04 4.902868432078e+06 
1.380000000100e+04 4.905606702858e+06 
1.410000000100e+04 4.909105707019e+06 
1.440000000100e+04 4.913501453166e+06 
1.470000000100e+04 4.897598644422e+06 
1.500000000100e+04 4.897982118589e+06 
1.530000000100e+04 4.898362946740e+06 
1.560000000100e+04 4.898798727658e+06 
1.590000000100e+04 4.899262774801e+06 
1.620000000100e+04 4.899724089504e+06 
1.650000000100e+04 4.900252707791e+06 
1.680000000100e+04 4.897598644396e+06 
1.710000000100e+04 4.897598644411e+06 
1.740000000100e+04 4.897598644410e+06 
1.770000000100e+04 4.897598644411e+06 
1.800000000100e+04 4.897598644410e+06 
1.830000000100e+04 4.897598644411e+06 
1.860000000100e+04 4.897598644411e+06 
