 TITLE = "Time curves in points"
 VARIABLES = "TIME "  "PRESSURE1" 
 ZONE T="POINT=POINTL2_MID"
0.000000000000e+00 0.000000000000e+00 
1.000000000000e-06 4.897610084134e+06 
3.000000010000e+02 4.897631247812e+06 
6.000000010000e+02 4.897631247811e+06 
9.000000010000e+02 4.897631247812e+06 
1.200000001000e+03 4.897631247811e+06 
1.500000001000e+03 4.897631247812e+06 
1.800000001000e+03 4.897631247811e+06 
2.100000001000e+03 4.897631247812e+06 
2.400000001000e+03 4.898018014786e+06 
2.700000001000e+03 4.898401248582e+06 
3.000000001000e+03 4.898841978357e+06 
3.300000001000e+03 4.899309764446e+06 
3.600000001000e+03 4.899775265499e+06 
3.900000001000e+03 4.900308772910e+06 
4.200000001000e+03 4.897631247799e+06 
4.500000001000e+03 4.899025291548e+06 
4.800000001000e+03 4.900768832240e+06 
5.100000001000e+03 4.902966363829e+06 
5.400000001000e+03 4.905761329935e+06 
5.700000001000e+03 4.909428943411e+06 
6.000000001000e+03 4.914131086439e+06 
6.300000001000e+03 4.897631247834e+06 
6.600000001000e+03 4.900199111055e+06 
6.900000001000e+03 4.904055491687e+06 
7.200000001000e+03 4.909928366142e+06 
7.500000001000e+03 4.919139239918e+06 
7.800000001000e+03 4.935098877936e+06 
8.100000001000e+03 4.962153920046e+06 
8.400000001000e+03 4.897631248060e+06 
8.700000001000e+03 4.900768843271e+06 
9.000000001000e+03 4.905757692679e+06 
9.300000001000e+03 4.914131086439e+06 
9.600000001000e+03 4.928375996668e+06 
9.900000001000e+03 4.959344205165e+06 
1.020000000100e+04 5.002516317328e+06 
1.050000000100e+04 4.897631248107e+06 
1.080000000100e+04 4.900199111055e+06 
1.110000000100e+04 4.904055491688e+06 
1.140000000100e+04 4.909928366142e+06 
1.170000000100e+04 4.919139239919e+06 
1.200000000100e+04 4.935098877934e+06 
1.230000000100e+04 4.962153920046e+06 
1.260000000100e+04 4.897631248060e+06 
1.290000000100e+04 4.899025291548e+06 
1.320000000100e+04 4.900768832241e+06 
1.350000000100e+04 4.902966363829e+06 
1.380000000100e+04 4.905761329934e+06 
1.410000000100e+04 4.909428943411e+06 
1.440000000100e+04 4.914131086439e+06 
1.470000000100e+04 4.897631247834e+06 
1.500000000100e+04 4.898018014785e+06 
1.530000000100e+04 4.898401248581e+06 
1.560000000100e+04 4.898841978357e+06 
1.590000000100e+04 4.899309764445e+06 
1.620000000100e+04 4.899775265499e+06 
1.650000000100e+04 4.900308772910e+06 
1.680000000100e+04 4.897631247799e+06 
1.710000000100e+04 4.897631247812e+06 
1.740000000100e+04 4.897631247812e+06 
1.770000000100e+04 4.897631247811e+06 
1.800000000100e+04 4.897631247811e+06 
1.830000000100e+04 4.897631247812e+06 
1.860000000100e+04 4.897631247812e+06 
