 TITLE = "Time curves in points"
 VARIABLES = "TIME "  "PRESSURE1" 
 ZONE T="POINT=POINTL4_MID"
0.000000000000e+00 0.000000000000e+00 
1.000000000000e-06 4.890114395989e+06 
3.000000010000e+02 4.890114415330e+06 
6.000000010000e+02 4.890114415330e+06 
9.000000010000e+02 4.890114415330e+06 
1.200000001000e+03 4.890114415330e+06 
1.500000001000e+03 4.890114415330e+06 
1.800000001000e+03 4.890114415330e+06 
2.100000001000e+03 4.890114415330e+06 
2.400000001000e+03 4.890113178970e+06 
2.700000001000e+03 4.890111968031e+06 
3.000000001000e+03 4.890110708143e+06 
3.300000001000e+03 4.890109253622e+06 
3.600000001000e+03 4.890107836521e+06 
3.900000001000e+03 4.890106247150e+06 
4.200000001000e+03 4.890114415330e+06 
4.500000001000e+03 4.890110134465e+06 
4.800000001000e+03 4.890104972670e+06 
5.100000001000e+03 4.890098946499e+06 
5.400000001000e+03 4.890092193913e+06 
5.700000001000e+03 4.890082297232e+06 
6.000000001000e+03 4.890071020979e+06 
6.300000001000e+03 4.890114415330e+06 
6.600000001000e+03 4.890106570786e+06 
6.900000001000e+03 4.890096156113e+06 
7.200000001000e+03 4.890080797814e+06 
7.500000001000e+03 4.890068739417e+06 
7.800000001000e+03 4.890060474267e+06 
8.100000001000e+03 4.890029874588e+06 
8.400000001000e+03 4.890114415331e+06 
8.700000001000e+03 4.890104972670e+06 
9.000000001000e+03 4.890092174806e+06 
9.300000001000e+03 4.890071020979e+06 
9.600000001000e+03 4.890060365594e+06 
9.900000001000e+03 4.890029605005e+06 
1.020000000100e+04 4.890000110007e+06 
1.050000000100e+04 4.890114415331e+06 
1.080000000100e+04 4.890106570786e+06 
1.110000000100e+04 4.890096156113e+06 
1.140000000100e+04 4.890080797814e+06 
1.170000000100e+04 4.890068739417e+06 
1.200000000100e+04 4.890060474267e+06 
1.230000000100e+04 4.890029874588e+06 
1.260000000100e+04 4.890114415330e+06 
1.290000000100e+04 4.890110134465e+06 
1.320000000100e+04 4.890104972670e+06 
1.350000000100e+04 4.890098946499e+06 
1.380000000100e+04 4.890092193913e+06 
1.410000000100e+04 4.890082297232e+06 
1.440000000100e+04 4.890071020979e+06 
1.470000000100e+04 4.890114415330e+06 
1.500000000100e+04 4.890113178970e+06 
1.530000000100e+04 4.890111968031e+06 
1.560000000100e+04 4.890110708143e+06 
1.590000000100e+04 4.890109253622e+06 
1.620000000100e+04 4.890107836521e+06 
1.650000000100e+04 4.890106247150e+06 
1.680000000100e+04 4.890114415330e+06 
1.710000000100e+04 4.890114415330e+06 
1.740000000100e+04 4.890114415330e+06 
1.770000000100e+04 4.890114415330e+06 
1.800000000100e+04 4.890114415330e+06 
1.830000000100e+04 4.890114415330e+06 
1.860000000100e+04 4.890114415330e+06 
