 TITLE = "Time curves in points"
 VARIABLES = "TIME "  "PRESSURE1" 
 ZONE T="POINT=POINTL4_MID"
0.000000000000e+00 0.000000000000e+00 
1.000000000000e-06 4.890114077779e+06 
3.000000010000e+02 4.890114077779e+06 
6.000000010000e+02 4.890114077779e+06 
9.000000010000e+02 4.890114077779e+06 
1.200000001000e+03 4.890114077779e+06 
1.500000001000e+03 4.890114077779e+06 
1.800000001000e+03 4.890114077779e+06 
2.100000001000e+03 4.890114077779e+06 
2.400000001000e+03 4.890112820865e+06 
2.700000001000e+03 4.890111588454e+06 
3.000000001000e+03 4.890110204747e+06 
3.300000001000e+03 4.890108717007e+06 
3.600000001000e+03 4.890107267009e+06 
3.900000001000e+03 4.890105640158e+06 
4.200000001000e+03 4.890114077779e+06 
4.500000001000e+03 4.890109618029e+06 
4.800000001000e+03 4.890104284747e+06 
5.100000001000e+03 4.890098054405e+06 
5.400000001000e+03 4.890090933601e+06 
5.700000001000e+03 4.890083498556e+06 
6.000000001000e+03 4.890078377400e+06 
6.300000001000e+03 4.890114077779e+06 
6.600000001000e+03 4.890105971471e+06 
6.900000001000e+03 4.890095178378e+06 
7.200000001000e+03 4.890082677176e+06 
7.500000001000e+03 4.890077885231e+06 
7.800000001000e+03 4.890082374946e+06 
8.100000001000e+03 4.890090262953e+06 
8.400000001000e+03 4.890114077779e+06 
8.700000001000e+03 4.890104284748e+06 
9.000000001000e+03 4.890090926005e+06 
9.300000001000e+03 4.890078362182e+06 
9.600000001000e+03 4.890080061629e+06 
9.900000001000e+03 4.890089318478e+06 
1.020000000100e+04 4.890104354560e+06 
1.050000000100e+04 4.890114077779e+06 
1.080000000100e+04 4.890105971471e+06 
1.110000000100e+04 4.890095178378e+06 
1.140000000100e+04 4.890082677176e+06 
1.170000000100e+04 4.890077885231e+06 
1.200000000100e+04 4.890082374946e+06 
1.230000000100e+04 4.890090262953e+06 
1.260000000100e+04 4.890114077779e+06 
1.290000000100e+04 4.890109618029e+06 
1.320000000100e+04 4.890104284747e+06 
1.350000000100e+04 4.890098054405e+06 
1.380000000100e+04 4.890090933601e+06 
1.410000000100e+04 4.890083498556e+06 
1.440000000100e+04 4.890078377400e+06 
1.470000000100e+04 4.890114077779e+06 
1.500000000100e+04 4.890112820865e+06 
1.530000000100e+04 4.890111588454e+06 
1.560000000100e+04 4.890110204747e+06 
1.590000000100e+04 4.890108717007e+06 
1.620000000100e+04 4.890107267009e+06 
1.650000000100e+04 4.890105640158e+06 
1.680000000100e+04 4.890114077779e+06 
1.710000000100e+04 4.890114077779e+06 
1.740000000100e+04 4.890114077779e+06 
1.770000000100e+04 4.890114077779e+06 
1.800000000100e+04 4.890114077779e+06 
1.830000000100e+04 4.890114077779e+06 
1.860000000100e+04 4.890114077779e+06 
